
     Program BANDS v.7.1 starts on 31May2023 at 16:11:59 

     This program is part of the open-source Quantum ESPRESSO suite
     for quantum simulation of materials; please cite
         "P. Giannozzi et al., J. Phys.:Condens. Matter 21 395502 (2009);
         "P. Giannozzi et al., J. Phys.:Condens. Matter 29 465901 (2017);
         "P. Giannozzi et al., J. Chem. Phys. 152 154105 (2020);
          URL http://www.quantum-espresso.org", 
     in publications or presentations arising from this work. More details at
     http://www.quantum-espresso.org/quote

     Parallel version (MPI), running on    20 processors

     MPI processes distributed on     1 nodes
     R & G space division:  proc/nbgrp/npool/nimage =      20
     59157 MiB available memory on the printing compute node when the environment starts
 

     Reading xml data from directory:

     ./work/Si.save/

     IMPORTANT: XC functional enforced from input :
     Exchange-correlation= PZ
                           (   1   1   0   0   0   0   0)
     Any further DFT definition will be discarded
     Please, verify this is what you really want

 
     Parallelization info
     --------------------
     sticks:   dense  smooth     PW     G-vecs:    dense   smooth      PW
     Min          57      57     16                 1275     1275     196
     Max          58      58     19                 1277     1277     198
     Sum        1147    1147    337                25509    25509    3943
 
     Using Slab Decomposition
 
     Reading collected, re-writing distributed wavefunctions
     high-symmetry point:  0.0000 0.0000 0.0000   x coordinate   0.0000
     high-symmetry point: -1.0000 0.0000 0.0000   x coordinate   1.0000
     high-symmetry point: -1.0000 0.5000 0.0000   x coordinate   1.5000
     high-symmetry point: -0.7500 0.7500 0.0000   x coordinate   1.8536
     high-symmetry point:  0.0000 0.0000 0.0000   x coordinate   2.9142
     high-symmetry point: -0.5000 0.5000 0.5000   x coordinate   3.7802
     high-symmetry point: -1.0000 0.2500 0.2500   x coordinate   4.3926
     high-symmetry point: -1.0000 0.5000 0.0000   x coordinate   4.7462
     high-symmetry point: -0.5000 0.5000 0.5000   x coordinate   5.4533
     high-symmetry point: -0.7500 0.7500 0.0000   x coordinate   6.0656

     Plottable bands (eV) written to file Si.bands.gnu
     Bands written to file Si.bands

 **************************************************************************

                    xk=(   0.00000,   0.00000,   0.00000  )

     point group O_h (m-3m) 
     there are 10 classes
     the character table:

       E     8C3   3C2   6C4   6C2'  i     8S6   3s_h  6S4   6s_d 
A_1g   1.00  1.00  1.00  1.00  1.00  1.00  1.00  1.00  1.00  1.00
A_2g   1.00  1.00  1.00 -1.00 -1.00  1.00  1.00  1.00 -1.00 -1.00
E_g    2.00 -1.00  2.00  0.00  0.00  2.00 -1.00  2.00  0.00  0.00
T_1g   3.00  0.00 -1.00  1.00 -1.00  3.00  0.00 -1.00  1.00 -1.00
T_2g   3.00  0.00 -1.00 -1.00  1.00  3.00  0.00 -1.00 -1.00  1.00
A_1u   1.00  1.00  1.00  1.00  1.00 -1.00 -1.00 -1.00 -1.00 -1.00
A_2u   1.00  1.00  1.00 -1.00 -1.00 -1.00 -1.00 -1.00  1.00  1.00
E_u    2.00 -1.00  2.00  0.00  0.00 -2.00  1.00 -2.00  0.00  0.00
T_1u   3.00  0.00 -1.00  1.00 -1.00 -3.00  0.00  1.00 -1.00  1.00
T_2u   3.00  0.00 -1.00 -1.00  1.00 -3.00  0.00  1.00  1.00 -1.00

     the symmetry operations in each class and the name of the first element:

     E        1
                                                                 
     8C3     17   19   20   18   24   21   22   23
                                                                 
     3C2      2    4    3
                                                                 
     6C4      7    8   15   16   12   11
                                                                 
     6C2'     5    6   14   13   10    9
                                                                 
     i       25
                                                                 
     8S6     41   43   44   42   48   45   46   47
                                                                 
     3s_h    26   28   27
                                                                 
     6S4     31   32   39   40   36   35
                                                                 
     6s_d    29   30   38   37   34   33
                                                                 

     Band symmetry, O_h (m-3m)  point group:

     e(  1 -  1) =     -5.84654  eV     1   --> A_1g G_1   G_1+
     e(  2 -  4) =      6.29931  eV     3   --> T_2g G_25' G_5+
     e(  5 -  7) =      8.86762  eV     3   --> T_1u G_15  G_4-
     e(  8 -  8) =      9.73842  eV     1   --> A_2u G_2'  G_2-
     e(  9 -  9) =     14.06814  eV     1   --> A_1g G_1   G_1+
     e( 10 - 11) =     14.08681  eV     2   --> E_u  G_12' G_3-
     e( 12 - 14) =     17.54021  eV     3   --> T_2g G_25' G_5+
     e( 15 - 15) =     21.53796  eV     1   --> A_2u G_2'  G_2-
     e( 16 - 18) =     29.45590  eV     3   --> T_2g G_25' G_5+
     e( 19 - 20) =     30.61701  eV     2   --> E_g  G_12  G_3+
     e( 21 - 23) =     31.74482  eV     3   --> T_1u G_15  G_4-
     e( 24 - 26) =     36.07710  eV     3   --> T_2u G_25  G_5-
     e( 27 - 29) =     41.13261  eV     3   --> T_1u G_15  G_4-
     e( 30 - 30) =     43.22112  eV     1   --> A_1g G_1   G_1+
     e( 31 - 32) =     45.01316  eV     2   --> E_u  G_12' G_3-

 **************************************************************************

 **************************************************************************

                    xk=(  -0.01667,   0.00000,   0.00000  )

     point group C_4v (4mm) 
     there are  5 classes
     the character table:

       E     2C4   C2    2s_v  2s_d 
A_1    1.00  1.00  1.00  1.00  1.00
A_2    1.00  1.00  1.00 -1.00 -1.00
B_1    1.00 -1.00  1.00  1.00 -1.00
B_2    1.00 -1.00  1.00 -1.00  1.00
E      2.00  0.00 -2.00  0.00  0.00

     the symmetry operations in each class and the name of the first element:

     E        1
                                                                 
     2C4      3    4
                                                                 
     C2       2
                                                                 
     2s_v     5    6
                                                                 
     2s_d     7    8
                                                                 

     Band symmetry, C_4v (4mm)  point group:

     e(  1 -  1) =     -5.84529  eV     1   --> A_1  G_1 D_1   
     e(  2 -  2) =      6.29097  eV     1   --> B_2  G_4 D_2'  
     e(  3 -  4) =      6.29381  eV     2   --> E    G_5 D_5   
     e(  5 -  5) =      8.86431  eV     1   --> A_1  G_1 D_1   
     e(  6 -  7) =      8.87462  eV     2   --> E    G_5 D_5   
     e(  8 -  8) =      9.74659  eV     1   --> B_2  G_4 D_2'  
     e(  9 -  9) =     14.07385  eV     1   --> A_1  G_1 D_1   
     e( 10 - 10) =     14.07591  eV     1   --> B_2  G_4 D_2'  
     e( 11 - 11) =     14.08818  eV     1   --> A_2  G_2 D_1'  
     e( 12 - 13) =     17.54238  eV     2   --> E    G_5 D_5   
     e( 14 - 14) =     17.54759  eV     1   --> B_2  G_4 D_2'  
     e( 15 - 15) =     21.54737  eV     1   --> B_2  G_4 D_2'  
     e( 16 - 17) =     29.43440  eV     2   --> E    G_5 D_5   
     e( 18 - 18) =     29.45743  eV     1   --> B_2  G_4 D_2'  
     e( 19 - 19) =     30.60169  eV     1   --> A_1  G_1 D_1   
     e( 20 - 20) =     30.60186  eV     1   --> B_1  G_3 D_2   
     e( 21 - 21) =     31.75668  eV     1   --> A_1  G_1 D_1   
     e( 22 - 23) =     31.76013  eV     2   --> E    G_5 D_5   
     e( 24 - 25) =     36.08595  eV     2   --> E    G_5 D_5   
     e( 26 - 26) =     36.09278  eV     1   --> B_1  G_3 D_2   
     e( 27 - 27) =     41.12334  eV     1   --> A_1  G_1 D_1   
     e( 28 - 29) =     41.12362  eV     2   --> E    G_5 D_5   
     e( 30 - 30) =     43.22894  eV     1   --> A_1  G_1 D_1   
     e( 31 - 31) =     44.98966  eV     1   --> B_2  G_4 D_2'  
     e( 32 - 32) =     45.01035  eV     1   --> A_2  G_2 D_1'  

 **************************************************************************

 **************************************************************************

                    xk=(  -0.03333,   0.00000,   0.00000  )

     Band symmetry, C_4v (4mm)  point group:

     e(  1 -  1) =     -5.84156  eV     1   --> A_1  G_1 D_1   
     e(  2 -  2) =      6.26617  eV     1   --> B_2  G_4 D_2'  
     e(  3 -  4) =      6.27750  eV     2   --> E    G_5 D_5   
     e(  5 -  5) =      8.85444  eV     1   --> A_1  G_1 D_1   
     e(  6 -  7) =      8.89542  eV     2   --> E    G_5 D_5   
     e(  8 -  8) =      9.77082  eV     1   --> B_2  G_4 D_2'  
     e(  9 -  9) =     14.04369  eV     1   --> B_2  G_4 D_2'  
     e( 10 - 10) =     14.09095  eV     1   --> A_1  G_1 D_1   
     e( 11 - 11) =     14.09228  eV     1   --> A_2  G_2 D_1'  
     e( 12 - 13) =     17.54887  eV     2   --> E    G_5 D_5   
     e( 14 - 14) =     17.56935  eV     1   --> B_2  G_4 D_2'  
     e( 15 - 15) =     21.57556  eV     1   --> B_2  G_4 D_2'  
     e( 16 - 17) =     29.37181  eV     2   --> E    G_5 D_5   
     e( 18 - 18) =     29.46204  eV     1   --> B_2  G_4 D_2'  
     e( 19 - 19) =     30.55693  eV     1   --> B_1  G_3 D_2   
     e( 20 - 20) =     30.55761  eV     1   --> A_1  G_1 D_1   
     e( 21 - 21) =     31.79039  eV     1   --> A_1  G_1 D_1   
     e( 22 - 23) =     31.80415  eV     2   --> E    G_5 D_5   
     e( 24 - 25) =     36.11249  eV     2   --> E    G_5 D_5   
     e( 26 - 26) =     36.13926  eV     1   --> B_1  G_3 D_2   
     e( 27 - 27) =     41.09586  eV     1   --> A_1  G_1 D_1   
     e( 28 - 29) =     41.09674  eV     2   --> E    G_5 D_5   
     e( 30 - 30) =     43.25207  eV     1   --> A_1  G_1 D_1   
     e( 31 - 31) =     44.92033  eV     1   --> B_2  G_4 D_2'  
     e( 32 - 32) =     45.00196  eV     1   --> A_2  G_2 D_1'  

 **************************************************************************

 **************************************************************************

                    xk=(  -0.05000,   0.00000,   0.00000  )

     Band symmetry, C_4v (4mm)  point group:

     e(  1 -  1) =     -5.83534  eV     1   --> A_1  G_1 D_1   
     e(  2 -  2) =      6.22565  eV     1   --> B_2  G_4 D_2'  
     e(  3 -  4) =      6.25089  eV     2   --> E    G_5 D_5   
     e(  5 -  5) =      8.83816  eV     1   --> A_1  G_1 D_1   
     e(  6 -  7) =      8.92951  eV     2   --> E    G_5 D_5   
     e(  8 -  8) =      9.81026  eV     1   --> B_2  G_4 D_2'  
     e(  9 -  9) =     13.99148  eV     1   --> B_2  G_4 D_2'  
     e( 10 - 10) =     14.09911  eV     1   --> A_2  G_2 D_1'  
     e( 11 - 11) =     14.11927  eV     1   --> A_1  G_1 D_1   
     e( 12 - 13) =     17.55970  eV     2   --> E    G_5 D_5   
     e( 14 - 14) =     17.60440  eV     1   --> B_2  G_4 D_2'  
     e( 15 - 15) =     21.62238  eV     1   --> B_2  G_4 D_2'  
     e( 16 - 17) =     29.27311  eV     2   --> E    G_5 D_5   
     e( 18 - 18) =     29.46974  eV     1   --> B_2  G_4 D_2'  
     e( 19 - 19) =     30.48377  eV     1   --> B_1  G_3 D_2   
     e( 20 - 20) =     30.48928  eV     1   --> A_1  G_1 D_1   
     e( 21 - 21) =     31.84142  eV     1   --> A_1  G_1 D_1   
     e( 22 - 23) =     31.87193  eV     2   --> E    G_5 D_5   
     e( 24 - 25) =     36.15668  eV     2   --> E    G_5 D_5   
     e( 26 - 26) =     36.21498  eV     1   --> B_1  G_3 D_2   
     e( 27 - 27) =     41.05100  eV     1   --> A_1  G_1 D_1   
     e( 28 - 29) =     41.05226  eV     2   --> E    G_5 D_5   
     e( 30 - 30) =     43.28956  eV     1   --> A_1  G_1 D_1   
     e( 31 - 31) =     44.80834  eV     1   --> B_2  G_4 D_2'  
     e( 32 - 32) =     44.98807  eV     1   --> A_2  G_2 D_1'  

 **************************************************************************

 **************************************************************************

                    xk=(  -0.06667,   0.00000,   0.00000  )

     Band symmetry, C_4v (4mm)  point group:

     e(  1 -  1) =     -5.82664  eV     1   --> A_1  G_1 D_1   
     e(  2 -  2) =      6.17049  eV     1   --> B_2  G_4 D_2'  
     e(  3 -  4) =      6.21481  eV     2   --> E    G_5 D_5   
     e(  5 -  5) =      8.81569  eV     1   --> A_1  G_1 D_1   
     e(  6 -  7) =      8.97605  eV     2   --> E    G_5 D_5   
     e(  8 -  8) =      9.86362  eV     1   --> B_2  G_4 D_2'  
     e(  9 -  9) =     13.92131  eV     1   --> B_2  G_4 D_2'  
     e( 10 - 10) =     14.10867  eV     1   --> A_2  G_2 D_1'  
     e( 11 - 11) =     14.15857  eV     1   --> A_1  G_1 D_1   
     e( 12 - 13) =     17.57486  eV     2   --> E    G_5 D_5   
     e( 14 - 14) =     17.65113  eV     1   --> B_2  G_4 D_2'  
     e( 15 - 15) =     21.68760  eV     1   --> B_2  G_4 D_2'  
     e( 16 - 17) =     29.14461  eV     2   --> E    G_5 D_5   
     e( 18 - 18) =     29.48054  eV     1   --> B_2  G_4 D_2'  
     e( 19 - 19) =     30.38464  eV     1   --> B_1  G_3 D_2   
     e( 20 - 20) =     30.40191  eV     1   --> A_1  G_1 D_1   
     e( 21 - 21) =     31.90461  eV     1   --> A_1  G_1 D_1   
     e( 22 - 23) =     31.95720  eV     2   --> E    G_5 D_5   
     e( 24 - 25) =     36.21848  eV     2   --> E    G_5 D_5   
     e( 26 - 26) =     36.31758  eV     1   --> B_1  G_3 D_2   
     e( 27 - 27) =     40.98996  eV     1   --> A_1  G_1 D_1   
     e( 28 - 29) =     40.99056  eV     2   --> E    G_5 D_5   
     e( 30 - 30) =     43.34008  eV     1   --> A_1  G_1 D_1   
     e( 31 - 31) =     44.65816  eV     1   --> B_2  G_4 D_2'  
     e( 32 - 32) =     44.96881  eV     1   --> A_2  G_2 D_1'  

 **************************************************************************

 **************************************************************************

                    xk=(  -0.08333,   0.00000,   0.00000  )

     Band symmetry, C_4v (4mm)  point group:

     e(  1 -  1) =     -5.81544  eV     1   --> A_1  G_1 D_1   
     e(  2 -  2) =      6.10202  eV     1   --> B_2  G_4 D_2'  
     e(  3 -  4) =      6.17025  eV     2   --> E    G_5 D_5   
     e(  5 -  5) =      8.78734  eV     1   --> A_1  G_1 D_1   
     e(  6 -  7) =      9.03405  eV     2   --> E    G_5 D_5   
     e(  8 -  8) =      9.92926  eV     1   --> B_2  G_4 D_2'  
     e(  9 -  9) =     13.83569  eV     1   --> B_2  G_4 D_2'  
     e( 10 - 10) =     14.12096  eV     1   --> A_2  G_2 D_1'  
     e( 11 - 11) =     14.20855  eV     1   --> A_1  G_1 D_1   
     e( 12 - 13) =     17.59434  eV     2   --> E    G_5 D_5   
     e( 14 - 14) =     17.70766  eV     1   --> B_2  G_4 D_2'  
     e( 15 - 15) =     21.77086  eV     1   --> B_2  G_4 D_2'  
     e( 16 - 17) =     28.99244  eV     2   --> E    G_5 D_5   
     e( 18 - 18) =     29.49445  eV     1   --> B_2  G_4 D_2'  
     e( 19 - 19) =     30.26229  eV     1   --> B_1  G_3 D_2   
     e( 20 - 20) =     30.30000  eV     1   --> A_1  G_1 D_1   
     e( 21 - 21) =     31.97538  eV     1   --> A_1  G_1 D_1   
     e( 22 - 23) =     32.05385  eV     2   --> E    G_5 D_5   
     e( 24 - 25) =     36.29775  eV     2   --> E    G_5 D_5   
     e( 26 - 26) =     36.44421  eV     1   --> B_1  G_3 D_2   
     e( 27 - 28) =     40.91221  eV     2   --> E    G_5 D_5   
     e( 29 - 29) =     40.91406  eV     1   --> A_1  G_1 D_1   
     e( 30 - 30) =     43.40190  eV     1   --> A_1  G_1 D_1   
     e( 31 - 31) =     44.47487  eV     1   --> B_2  G_4 D_2'  
     e( 32 - 32) =     44.94435  eV     1   --> A_2  G_2 D_1'  

 **************************************************************************

 **************************************************************************

                    xk=(  -0.10000,   0.00000,   0.00000  )

     Band symmetry, C_4v (4mm)  point group:

     e(  1 -  1) =     -5.80177  eV     1   --> A_1  G_1 D_1   
     e(  2 -  2) =      6.02170  eV     1   --> B_2  G_4 D_2'  
     e(  3 -  4) =      6.11828  eV     2   --> E    G_5 D_5   
     e(  5 -  5) =      8.75350  eV     1   --> A_1  G_1 D_1   
     e(  6 -  7) =      9.10244  eV     2   --> E    G_5 D_5   
     e(  8 -  8) =     10.00528  eV     1   --> B_2  G_4 D_2'  
     e(  9 -  9) =     13.73739  eV     1   --> B_2  G_4 D_2'  
     e( 10 - 10) =     14.13599  eV     1   --> A_2  G_2 D_1'  
     e( 11 - 11) =     14.26882  eV     1   --> A_1  G_1 D_1   
     e( 12 - 13) =     17.61814  eV     2   --> E    G_5 D_5   
     e( 14 - 14) =     17.77205  eV     1   --> B_2  G_4 D_2'  
     e( 15 - 15) =     21.87169  eV     1   --> B_2  G_4 D_2'  
     e( 16 - 17) =     28.82204  eV     2   --> E    G_5 D_5   
     e( 18 - 18) =     29.51156  eV     1   --> B_2  G_4 D_2'  
     e( 19 - 19) =     30.11971  eV     1   --> B_1  G_3 D_2   
     e( 20 - 20) =     30.18704  eV     1   --> A_1  G_1 D_1   
     e( 21 - 21) =     32.05035  eV     1   --> A_1  G_1 D_1   
     e( 22 - 23) =     32.15681  eV     2   --> E    G_5 D_5   
     e( 24 - 25) =     36.39427  eV     2   --> E    G_5 D_5   
     e( 26 - 26) =     36.59180  eV     1   --> B_1  G_3 D_2   
     e( 27 - 28) =     40.81805  eV     2   --> E    G_5 D_5   
     e( 29 - 29) =     40.82469  eV     1   --> A_1  G_1 D_1   
     e( 30 - 30) =     43.47362  eV     1   --> A_1  G_1 D_1   
     e( 31 - 31) =     44.26330  eV     1   --> B_2  G_4 D_2'  
     e( 32 - 32) =     44.91498  eV     1   --> A_2  G_2 D_1'  

 **************************************************************************

 **************************************************************************

                    xk=(  -0.11667,   0.00000,   0.00000  )

     Band symmetry, C_4v (4mm)  point group:

     e(  1 -  1) =     -5.78561  eV     1   --> A_1  G_1 D_1   
     e(  2 -  2) =      5.93097  eV     1   --> B_2  G_4 D_2'  
     e(  3 -  4) =      6.05999  eV     2   --> E    G_5 D_5   
     e(  5 -  5) =      8.71458  eV     1   --> A_1  G_1 D_1   
     e(  6 -  7) =      9.18010  eV     2   --> E    G_5 D_5   
     e(  8 -  8) =     10.08963  eV     1   --> B_2  G_4 D_2'  
     e(  9 -  9) =     13.62935  eV     1   --> B_2  G_4 D_2'  
     e( 10 - 10) =     14.15375  eV     1   --> A_2  G_2 D_1'  
     e( 11 - 11) =     14.33893  eV     1   --> A_1  G_1 D_1   
     e( 12 - 13) =     17.64625  eV     2   --> E    G_5 D_5   
     e( 14 - 14) =     17.84251  eV     1   --> B_2  G_4 D_2'  
     e( 15 - 15) =     21.98954  eV     1   --> B_2  G_4 D_2'  
     e( 16 - 17) =     28.63755  eV     2   --> E    G_5 D_5   
     e( 18 - 18) =     29.53186  eV     1   --> B_2  G_4 D_2'  
     e( 19 - 19) =     29.95971  eV     1   --> B_1  G_3 D_2   
     e( 20 - 20) =     30.06551  eV     1   --> A_1  G_1 D_1   
     e( 21 - 21) =     32.12697  eV     1   --> A_1  G_1 D_1   
     e( 22 - 23) =     32.26207  eV     2   --> E    G_5 D_5   
     e( 24 - 25) =     36.50771  eV     2   --> E    G_5 D_5   
     e( 26 - 26) =     36.75729  eV     1   --> B_1  G_3 D_2   
     e( 27 - 28) =     40.70864  eV     2   --> E    G_5 D_5   
     e( 29 - 29) =     40.72290  eV     1   --> A_1  G_1 D_1   
     e( 30 - 30) =     43.55329  eV     1   --> A_1  G_1 D_1   
     e( 31 - 31) =     44.02813  eV     1   --> B_2  G_4 D_2'  
     e( 32 - 32) =     44.88091  eV     1   --> A_2  G_2 D_1'  

 **************************************************************************

 **************************************************************************

                    xk=(  -0.13333,   0.00000,   0.00000  )

     Band symmetry, C_4v (4mm)  point group:

     e(  1 -  1) =     -5.76698  eV     1   --> A_1  G_1 D_1   
     e(  2 -  2) =      5.83123  eV     1   --> B_2  G_4 D_2'  
     e(  3 -  4) =      5.99642  eV     2   --> E    G_5 D_5   
     e(  5 -  5) =      8.67104  eV     1   --> A_1  G_1 D_1   
     e(  6 -  7) =      9.26599  eV     2   --> E    G_5 D_5   
     e(  8 -  8) =     10.18011  eV     1   --> B_2  G_4 D_2'  
     e(  9 -  9) =     13.51456  eV     1   --> B_2  G_4 D_2'  
     e( 10 - 10) =     14.17424  eV     1   --> A_2  G_2 D_1'  
     e( 11 - 11) =     14.41841  eV     1   --> A_1  G_1 D_1   
     e( 12 - 13) =     17.67866  eV     2   --> E    G_5 D_5   
     e( 14 - 14) =     17.91747  eV     1   --> B_2  G_4 D_2'  
     e( 15 - 15) =     22.12371  eV     1   --> B_2  G_4 D_2'  
     e( 16 - 17) =     28.44230  eV     2   --> E    G_5 D_5   
     e( 18 - 18) =     29.55545  eV     1   --> B_2  G_4 D_2'  
     e( 19 - 19) =     29.78499  eV     1   --> B_1  G_3 D_2   
     e( 20 - 20) =     29.93721  eV     1   --> A_1  G_1 D_1   
     e( 21 - 21) =     32.20350  eV     1   --> A_1  G_1 D_1   
     e( 22 - 23) =     32.36680  eV     2   --> E    G_5 D_5   
     e( 24 - 25) =     36.63762  eV     2   --> E    G_5 D_5   
     e( 26 - 26) =     36.93782  eV     1   --> B_1  G_3 D_2   
     e( 27 - 28) =     40.58501  eV     2   --> E    G_5 D_5   
     e( 29 - 29) =     40.60966  eV     1   --> A_1  G_1 D_1   
     e( 30 - 30) =     43.63928  eV     1   --> A_1  G_1 D_1   
     e( 31 - 31) =     43.77342  eV     1   --> B_2  G_4 D_2'  
     e( 32 - 32) =     44.84247  eV     1   --> A_2  G_2 D_1'  

 **************************************************************************

 **************************************************************************

                    xk=(  -0.15000,   0.00000,   0.00000  )

     Band symmetry, C_4v (4mm)  point group:

     e(  1 -  1) =     -5.74586  eV     1   --> A_1  G_1 D_1   
     e(  2 -  2) =      5.72374  eV     1   --> B_2  G_4 D_2'  
     e(  3 -  4) =      5.92854  eV     2   --> E    G_5 D_5   
     e(  5 -  5) =      8.62334  eV     1   --> A_1  G_1 D_1   
     e(  6 -  7) =      9.35914  eV     2   --> E    G_5 D_5   
     e(  8 -  8) =     10.27438  eV     1   --> B_2  G_4 D_2'  
     e(  9 -  9) =     13.39605  eV     1   --> B_2  G_4 D_2'  
     e( 10 - 10) =     14.19746  eV     1   --> A_2  G_2 D_1'  
     e( 11 - 11) =     14.50678  eV     1   --> A_1  G_1 D_1   
     e( 12 - 13) =     17.71536  eV     2   --> E    G_5 D_5   
     e( 14 - 14) =     17.99569  eV     1   --> B_2  G_4 D_2'  
     e( 15 - 15) =     22.27342  eV     1   --> B_2  G_4 D_2'  
     e( 16 - 17) =     28.23879  eV     2   --> E    G_5 D_5   
     e( 18 - 18) =     29.58239  eV     1   --> B_2  G_4 D_2'  
     e( 19 - 19) =     29.59797  eV     1   --> B_1  G_3 D_2   
     e( 20 - 20) =     29.80345  eV     1   --> A_1  G_1 D_1   
     e( 21 - 21) =     32.27862  eV     1   --> A_1  G_1 D_1   
     e( 22 - 23) =     32.46902  eV     2   --> E    G_5 D_5   
     e( 24 - 25) =     36.78337  eV     2   --> E    G_5 D_5   
     e( 26 - 26) =     37.13074  eV     1   --> B_1  G_3 D_2   
     e( 27 - 28) =     40.44787  eV     2   --> E    G_5 D_5   
     e( 29 - 29) =     40.48561  eV     1   --> A_1  G_1 D_1   
     e( 30 - 30) =     43.50242  eV     1   --> B_2  G_4 D_2'  
     e( 31 - 31) =     43.72941  eV     1   --> A_1  G_1 D_1   
     e( 32 - 32) =     44.79996  eV     1   --> A_2  G_2 D_1'  

 **************************************************************************

 **************************************************************************

                    xk=(  -0.16667,   0.00000,   0.00000  )

     Band symmetry, C_4v (4mm)  point group:

     e(  1 -  1) =     -5.72228  eV     1   --> A_1  G_1 D_1   
     e(  2 -  2) =      5.60961  eV     1   --> B_2  G_4 D_2'  
     e(  3 -  4) =      5.85719  eV     2   --> E    G_5 D_5   
     e(  5 -  5) =      8.57198  eV     1   --> A_1  G_1 D_1   
     e(  6 -  7) =      9.45868  eV     2   --> E    G_5 D_5   
     e(  8 -  8) =     10.36982  eV     1   --> B_2  G_4 D_2'  
     e(  9 -  9) =     13.27703  eV     1   --> B_2  G_4 D_2'  
     e( 10 - 10) =     14.22340  eV     1   --> A_2  G_2 D_1'  
     e( 11 - 11) =     14.60353  eV     1   --> A_1  G_1 D_1   
     e( 12 - 13) =     17.75634  eV     2   --> E    G_5 D_5   
     e( 14 - 14) =     18.07619  eV     1   --> B_2  G_4 D_2'  
     e( 15 - 15) =     22.43780  eV     1   --> B_2  G_4 D_2'  
     e( 16 - 17) =     28.02898  eV     2   --> E    G_5 D_5   
     e( 18 - 18) =     29.40073  eV     1   --> B_1  G_3 D_2   
     e( 19 - 19) =     29.61274  eV     1   --> B_2  G_4 D_2'  
     e( 20 - 20) =     29.66518  eV     1   --> A_1  G_1 D_1   
     e( 21 - 21) =     32.35137  eV     1   --> A_1  G_1 D_1   
     e( 22 - 23) =     32.56743  eV     2   --> E    G_5 D_5   
     e( 24 - 25) =     36.94424  eV     2   --> E    G_5 D_5   
     e( 26 - 26) =     37.33367  eV     1   --> B_1  G_3 D_2   
     e( 27 - 28) =     40.29796  eV     2   --> E    G_5 D_5   
     e( 29 - 29) =     40.35122  eV     1   --> A_1  G_1 D_1   
     e( 30 - 30) =     43.21794  eV     1   --> B_2  G_4 D_2'  
     e( 31 - 31) =     43.82048  eV     1   --> A_1  G_1 D_1   
     e( 32 - 32) =     44.75362  eV     1   --> A_2  G_2 D_1'  

 **************************************************************************

 **************************************************************************

                    xk=(  -0.18333,   0.00000,   0.00000  )

     Band symmetry, C_4v (4mm)  point group:

     e(  1 -  1) =     -5.69622  eV     1   --> A_1  G_1 D_1   
     e(  2 -  2) =      5.48984  eV     1   --> B_2  G_4 D_2'  
     e(  3 -  4) =      5.78312  eV     2   --> E    G_5 D_5   
     e(  5 -  5) =      8.51742  eV     1   --> A_1  G_1 D_1   
     e(  6 -  7) =      9.56384  eV     2   --> E    G_5 D_5   
     e(  8 -  8) =     10.46351  eV     1   --> B_2  G_4 D_2'  
     e(  9 -  9) =     13.16095  eV     1   --> B_2  G_4 D_2'  
     e( 10 - 10) =     14.25208  eV     1   --> A_2  G_2 D_1'  
     e( 11 - 11) =     14.70815  eV     1   --> A_1  G_1 D_1   
     e( 12 - 13) =     17.80157  eV     2   --> E    G_5 D_5   
     e( 14 - 14) =     18.15829  eV     1   --> B_2  G_4 D_2'  
     e( 15 - 15) =     22.61592  eV     1   --> B_2  G_4 D_2'  
     e( 16 - 17) =     27.81437  eV     2   --> E    G_5 D_5   
     e( 18 - 18) =     29.19510  eV     1   --> B_1  G_3 D_2   
     e( 19 - 19) =     29.52315  eV     1   --> A_1  G_1 D_1   
     e( 20 - 20) =     29.64660  eV     1   --> B_2  G_4 D_2'  
     e( 21 - 21) =     32.42099  eV     1   --> A_1  G_1 D_1   
     e( 22 - 23) =     32.66132  eV     2   --> E    G_5 D_5   
     e( 24 - 25) =     37.11935  eV     2   --> E    G_5 D_5   
     e( 26 - 26) =     37.54449  eV     1   --> B_1  G_3 D_2   
     e( 27 - 28) =     40.13628  eV     2   --> E    G_5 D_5   
     e( 29 - 29) =     40.20678  eV     1   --> A_1  G_1 D_1   
     e( 30 - 30) =     42.92232  eV     1   --> B_2  G_4 D_2'  
     e( 31 - 31) =     43.90613  eV     1   --> A_1  G_1 D_1   
     e( 32 - 32) =     44.70396  eV     1   --> A_2  G_2 D_1'  

 **************************************************************************

 **************************************************************************

                    xk=(  -0.20000,   0.00000,   0.00000  )

     Band symmetry, C_4v (4mm)  point group:

     e(  1 -  1) =     -5.66770  eV     1   --> A_1  G_1 D_1   
     e(  2 -  2) =      5.36526  eV     1   --> B_2  G_4 D_2'  
     e(  3 -  4) =      5.70700  eV     2   --> E    G_5 D_5   
     e(  5 -  5) =      8.46013  eV     1   --> A_1  G_1 D_1   
     e(  6 -  7) =      9.67396  eV     2   --> E    G_5 D_5   
     e(  8 -  8) =     10.55202  eV     1   --> B_2  G_4 D_2'  
     e(  9 -  9) =     13.05170  eV     1   --> B_2  G_4 D_2'  
     e( 10 - 10) =     14.28349  eV     1   --> A_2  G_2 D_1'  
     e( 11 - 11) =     14.82016  eV     1   --> A_1  G_1 D_1   
     e( 12 - 13) =     17.85104  eV     2   --> E    G_5 D_5   
     e( 14 - 14) =     18.24157  eV     1   --> B_2  G_4 D_2'  
     e( 15 - 15) =     22.80679  eV     1   --> B_2  G_4 D_2'  
     e( 16 - 17) =     27.59618  eV     2   --> E    G_5 D_5   
     e( 18 - 18) =     28.98261  eV     1   --> B_1  G_3 D_2   
     e( 19 - 19) =     29.37795  eV     1   --> A_1  G_1 D_1   
     e( 20 - 20) =     29.68409  eV     1   --> B_2  G_4 D_2'  
     e( 21 - 21) =     32.48690  eV     1   --> A_1  G_1 D_1   
     e( 22 - 23) =     32.75030  eV     2   --> E    G_5 D_5   
     e( 24 - 25) =     37.30776  eV     2   --> E    G_5 D_5   
     e( 26 - 26) =     37.76131  eV     1   --> B_1  G_3 D_2   
     e( 27 - 28) =     39.96355  eV     2   --> E    G_5 D_5   
     e( 29 - 29) =     40.05246  eV     1   --> A_1  G_1 D_1   
     e( 30 - 30) =     42.61755  eV     1   --> B_2  G_4 D_2'  
     e( 31 - 31) =     43.97034  eV     1   --> A_1  G_1 D_1   
     e( 32 - 32) =     44.65125  eV     1   --> A_2  G_2 D_1'  

 **************************************************************************

 **************************************************************************

                    xk=(  -0.21667,   0.00000,   0.00000  )

     Band symmetry, C_4v (4mm)  point group:

     e(  1 -  1) =     -5.63672  eV     1   --> A_1  G_1 D_1   
     e(  2 -  2) =      5.23660  eV     1   --> B_2  G_4 D_2'  
     e(  3 -  4) =      5.62936  eV     2   --> E    G_5 D_5   
     e(  5 -  5) =      8.40055  eV     1   --> A_1  G_1 D_1   
     e(  6 -  7) =      9.78846  eV     2   --> E    G_5 D_5   
     e(  8 -  8) =     10.63129  eV     1   --> B_2  G_4 D_2'  
     e(  9 -  9) =     12.95368  eV     1   --> B_2  G_4 D_2'  
     e( 10 - 10) =     14.31763  eV     1   --> A_2  G_2 D_1'  
     e( 11 - 11) =     14.93907  eV     1   --> A_1  G_1 D_1   
     e( 12 - 13) =     17.90471  eV     2   --> E    G_5 D_5   
     e( 14 - 14) =     18.32576  eV     1   --> B_2  G_4 D_2'  
     e( 15 - 15) =     23.00941  eV     1   --> B_2  G_4 D_2'  
     e( 16 - 17) =     27.37536  eV     2   --> E    G_5 D_5   
     e( 18 - 18) =     28.76455  eV     1   --> B_1  G_3 D_2   
     e( 19 - 19) =     29.23006  eV     1   --> A_1  G_1 D_1   
     e( 20 - 20) =     29.72533  eV     1   --> B_2  G_4 D_2'  
     e( 21 - 21) =     32.54859  eV     1   --> A_1  G_1 D_1   
     e( 22 - 23) =     32.83429  eV     2   --> E    G_5 D_5   
     e( 24 - 25) =     37.50843  eV     2   --> E    G_5 D_5   
     e( 26 - 26) =     37.98242  eV     1   --> B_1  G_3 D_2   
     e( 27 - 28) =     39.78058  eV     2   --> E    G_5 D_5   
     e( 29 - 29) =     39.88832  eV     1   --> A_1  G_1 D_1   
     e( 30 - 30) =     42.30514  eV     1   --> B_2  G_4 D_2'  
     e( 31 - 31) =     43.97173  eV     1   --> A_1  G_1 D_1   
     e( 32 - 32) =     44.56175  eV     1   --> A_1  G_1 D_1   

 **************************************************************************

 **************************************************************************

                    xk=(  -0.23333,   0.00000,   0.00000  )

     Band symmetry, C_4v (4mm)  point group:

     e(  1 -  1) =     -5.60328  eV     1   --> A_1  G_1 D_1   
     e(  2 -  2) =      5.10445  eV     1   --> B_2  G_4 D_2'  
     e(  3 -  4) =      5.55071  eV     2   --> E    G_5 D_5   
     e(  5 -  5) =      8.33910  eV     1   --> A_1  G_1 D_1   
     e(  6 -  7) =      9.90684  eV     2   --> E    G_5 D_5   
     e(  8 -  8) =     10.69667  eV     1   --> B_2  G_4 D_2'  
     e(  9 -  9) =     12.87188  eV     1   --> B_2  G_4 D_2'  
     e( 10 - 10) =     14.35449  eV     1   --> A_2  G_2 D_1'  
     e( 11 - 11) =     15.06442  eV     1   --> A_1  G_1 D_1   
     e( 12 - 13) =     17.96254  eV     2   --> E    G_5 D_5   
     e( 14 - 14) =     18.41078  eV     1   --> B_2  G_4 D_2'  
     e( 15 - 15) =     23.22274  eV     1   --> B_2  G_4 D_2'  
     e( 16 - 17) =     27.15271  eV     2   --> E    G_5 D_5   
     e( 18 - 18) =     28.54202  eV     1   --> B_1  G_3 D_2   
     e( 19 - 19) =     29.07978  eV     1   --> A_1  G_1 D_1   
     e( 20 - 20) =     29.77047  eV     1   --> B_2  G_4 D_2'  
     e( 21 - 21) =     32.60559  eV     1   --> A_1  G_1 D_1   
     e( 22 - 23) =     32.91340  eV     2   --> E    G_5 D_5   
     e( 24 - 25) =     37.72023  eV     2   --> E    G_5 D_5   
     e( 26 - 26) =     38.20628  eV     1   --> B_1  G_3 D_2   
     e( 27 - 28) =     39.58822  eV     2   --> E    G_5 D_5   
     e( 29 - 29) =     39.71442  eV     1   --> A_1  G_1 D_1   
     e( 30 - 30) =     41.98649  eV     1   --> B_2  G_4 D_2'  
     e( 31 - 31) =     43.86403  eV     1   --> A_1  G_1 D_1   
     e( 32 - 32) =     44.53445  eV     1   --> A_1  G_1 D_1   

 **************************************************************************

 **************************************************************************

                    xk=(  -0.25000,   0.00000,   0.00000  )

     Band symmetry, C_4v (4mm)  point group:

     e(  1 -  1) =     -5.56739  eV     1   --> A_1  G_1 D_1   
     e(  2 -  2) =      4.96933  eV     1   --> B_2  G_4 D_2'  
     e(  3 -  4) =      5.47145  eV     2   --> E    G_5 D_5   
     e(  5 -  5) =      8.27616  eV     1   --> A_1  G_1 D_1   
     e(  6 -  7) =     10.02867  eV     2   --> E    G_5 D_5   
     e(  8 -  8) =     10.74315  eV     1   --> B_2  G_4 D_2'  
     e(  9 -  9) =     12.81160  eV     1   --> B_2  G_4 D_2'  
     e( 10 - 10) =     14.39408  eV     1   --> A_2  G_2 D_1'  
     e( 11 - 11) =     15.19578  eV     1   --> A_1  G_1 D_1   
     e( 12 - 13) =     18.02449  eV     2   --> E    G_5 D_5   
     e( 14 - 14) =     18.49664  eV     1   --> B_2  G_4 D_2'  
     e( 15 - 15) =     23.44577  eV     1   --> B_2  G_4 D_2'  
     e( 16 - 17) =     26.92890  eV     2   --> E    G_5 D_5   
     e( 18 - 18) =     28.31594  eV     1   --> B_1  G_3 D_2   
     e( 19 - 19) =     28.92765  eV     1   --> A_1  G_1 D_1   
     e( 20 - 20) =     29.81964  eV     1   --> B_2  G_4 D_2'  
     e( 21 - 21) =     32.65755  eV     1   --> A_1  G_1 D_1   
     e( 22 - 23) =     32.98783  eV     2   --> E    G_5 D_5   
     e( 24 - 25) =     37.94194  eV     2   --> E    G_5 D_5   
     e( 26 - 26) =     38.43146  eV     1   --> B_1  G_3 D_2   
     e( 27 - 28) =     39.38740  eV     2   --> E    G_5 D_5   
     e( 29 - 29) =     39.53071  eV     1   --> A_1  G_1 D_1   
     e( 30 - 30) =     41.66272  eV     1   --> B_2  G_4 D_2'  
     e( 31 - 31) =     43.68082  eV     1   --> A_1  G_1 D_1   
     e( 32 - 32) =     44.47804  eV     1   --> A_2  G_2 D_1'  

 **************************************************************************

 **************************************************************************

                    xk=(  -0.26667,   0.00000,   0.00000  )

     Band symmetry, C_4v (4mm)  point group:

     e(  1 -  1) =     -5.52905  eV     1   --> A_1  G_1 D_1   
     e(  2 -  2) =      4.83168  eV     1   --> B_2  G_4 D_2'  
     e(  3 -  4) =      5.39192  eV     2   --> E    G_5 D_5   
     e(  5 -  5) =      8.21212  eV     1   --> A_1  G_1 D_1   
     e(  6 -  7) =     10.15358  eV     2   --> E    G_5 D_5   
     e(  8 -  8) =     10.76609  eV     1   --> B_2  G_4 D_2'  
     e(  9 -  9) =     12.77773  eV     1   --> B_2  G_4 D_2'  
     e( 10 - 10) =     14.43640  eV     1   --> A_2  G_2 D_1'  
     e( 11 - 11) =     15.33273  eV     1   --> A_1  G_1 D_1   
     e( 12 - 13) =     18.09051  eV     2   --> E    G_5 D_5   
     e( 14 - 14) =     18.58345  eV     1   --> B_2  G_4 D_2'  
     e( 15 - 15) =     23.67749  eV     1   --> B_2  G_4 D_2'  
     e( 16 - 17) =     26.70450  eV     2   --> E    G_5 D_5   
     e( 18 - 18) =     28.08710  eV     1   --> B_1  G_3 D_2   
     e( 19 - 19) =     28.77394  eV     1   --> A_1  G_1 D_1   
     e( 20 - 20) =     29.87313  eV     1   --> B_2  G_4 D_2'  
     e( 21 - 21) =     32.70413  eV     1   --> A_1  G_1 D_1   
     e( 22 - 23) =     33.05786  eV     2   --> E    G_5 D_5   
     e( 24 - 25) =     38.17193  eV     2   --> E    G_5 D_5   
     e( 26 - 26) =     38.65665  eV     1   --> B_1  G_3 D_2   
     e( 27 - 28) =     39.17955  eV     2   --> E    G_5 D_5   
     e( 29 - 29) =     39.33756  eV     1   --> A_1  G_1 D_1   
     e( 30 - 30) =     41.33481  eV     1   --> B_2  G_4 D_2'  
     e( 31 - 31) =     43.47386  eV     1   --> A_1  G_1 D_1   
     e( 32 - 32) =     44.41635  eV     1   --> A_2  G_2 D_1'  

 **************************************************************************

 **************************************************************************

                    xk=(  -0.28333,   0.00000,   0.00000  )

     Band symmetry, C_4v (4mm)  point group:

     e(  1 -  1) =     -5.48828  eV     1   --> A_1  G_1 D_1   
     e(  2 -  2) =      4.69185  eV     1   --> B_2  G_4 D_2'  
     e(  3 -  4) =      5.31244  eV     2   --> E    G_5 D_5   
     e(  5 -  5) =      8.14730  eV     1   --> A_1  G_1 D_1   
     e(  6 -  7) =     10.28125  eV     2   --> E    G_5 D_5   
     e(  8 -  8) =     10.76236  eV     1   --> B_2  G_4 D_2'  
     e(  9 -  9) =     12.77358  eV     1   --> B_2  G_4 D_2'  
     e( 10 - 10) =     14.48144  eV     1   --> A_2  G_2 D_1'  
     e( 11 - 11) =     15.47486  eV     1   --> A_1  G_1 D_1   
     e( 12 - 13) =     18.16053  eV     2   --> E    G_5 D_5   
     e( 14 - 14) =     18.67136  eV     1   --> B_2  G_4 D_2'  
     e( 15 - 15) =     23.91690  eV     1   --> B_2  G_4 D_2'  
     e( 16 - 17) =     26.47997  eV     2   --> E    G_5 D_5   
     e( 18 - 18) =     27.85615  eV     1   --> B_1  G_3 D_2   
     e( 19 - 19) =     28.61886  eV     1   --> A_1  G_1 D_1   
     e( 20 - 20) =     29.93111  eV     1   --> B_2  G_4 D_2'  
     e( 21 - 21) =     32.74487  eV     1   --> A_1  G_1 D_1   
     e( 22 - 23) =     33.12373  eV     2   --> E    G_5 D_5   
     e( 24 - 25) =     38.40628  eV     2   --> E    G_5 D_5   
     e( 26 - 26) =     38.88058  eV     1   --> B_1  G_3 D_2   
     e( 27 - 28) =     38.96830  eV     2   --> E    G_5 D_5   
     e( 29 - 29) =     39.13512  eV     1   --> A_1  G_1 D_1   
     e( 30 - 30) =     41.00352  eV     1   --> B_2  G_4 D_2'  
     e( 31 - 31) =     43.26519  eV     1   --> A_1  G_1 D_1   
     e( 32 - 32) =     44.35320  eV     1   --> A_2  G_2 D_1'  

 **************************************************************************

 **************************************************************************

                    xk=(  -0.30000,   0.00000,   0.00000  )

     Band symmetry, C_4v (4mm)  point group:

     e(  1 -  1) =     -5.44507  eV     1   --> A_1  G_1 D_1   
     e(  2 -  2) =      4.55016  eV     1   --> B_2  G_4 D_2'  
     e(  3 -  4) =      5.23326  eV     2   --> E    G_5 D_5   
     e(  5 -  5) =      8.08202  eV     1   --> A_1  G_1 D_1   
     e(  6 -  7) =     10.41141  eV     2   --> E    G_5 D_5   
     e(  8 -  8) =     10.73126  eV     1   --> B_2  G_4 D_2'  
     e(  9 -  9) =     12.80004  eV     1   --> B_2  G_4 D_2'  
     e( 10 - 10) =     14.52921  eV     1   --> A_2  G_2 D_1'  
     e( 11 - 11) =     15.62181  eV     1   --> A_1  G_1 D_1   
     e( 12 - 13) =     18.23447  eV     2   --> E    G_5 D_5   
     e( 14 - 14) =     18.76055  eV     1   --> B_2  G_4 D_2'  
     e( 15 - 15) =     24.16300  eV     1   --> B_2  G_4 D_2'  
     e( 16 - 17) =     26.25581  eV     2   --> E    G_5 D_5   
     e( 18 - 18) =     27.62366  eV     1   --> B_1  G_3 D_2   
     e( 19 - 19) =     28.46275  eV     1   --> A_1  G_1 D_1   
     e( 20 - 20) =     29.99387  eV     1   --> B_2  G_4 D_2'  
     e( 21 - 21) =     32.77946  eV     1   --> A_1  G_1 D_1   
     e( 22 - 23) =     33.18568  eV     2   --> E    G_5 D_5   
     e( 24 - 25) =     38.60557  eV     2   --> E    G_5 D_5   
     e( 26 - 27) =     38.79291  eV     2   --> E    G_5 D_5   
     e( 28 - 28) =     38.92376  eV     1   --> A_1  G_1 D_1   
     e( 29 - 29) =     39.10207  eV     1   --> B_1  G_3 D_2   
     e( 30 - 30) =     40.66956  eV     1   --> B_2  G_4 D_2'  
     e( 31 - 31) =     43.06298  eV     1   --> A_1  G_1 D_1   
     e( 32 - 32) =     44.28883  eV     1   --> A_2  G_2 D_1'  

 **************************************************************************

 **************************************************************************

                    xk=(  -0.31667,   0.00000,   0.00000  )

     Band symmetry, C_4v (4mm)  point group:

     e(  1 -  1) =     -5.39943  eV     1   --> A_1  G_1 D_1   
     e(  2 -  2) =      4.40687  eV     1   --> B_2  G_4 D_2'  
     e(  3 -  4) =      5.15461  eV     2   --> E    G_5 D_5   
     e(  5 -  5) =      8.01658  eV     1   --> A_1  G_1 D_1   
     e(  6 -  7) =     10.54380  eV     2   --> E    G_5 D_5   
     e(  8 -  8) =     10.67468  eV     1   --> B_2  G_4 D_2'  
     e(  9 -  9) =     12.85536  eV     1   --> B_2  G_4 D_2'  
     e( 10 - 10) =     14.57968  eV     1   --> A_2  G_2 D_1'  
     e( 11 - 11) =     15.77319  eV     1   --> A_1  G_1 D_1   
     e( 12 - 13) =     18.31223  eV     2   --> E    G_5 D_5   
     e( 14 - 14) =     18.85123  eV     1   --> B_2  G_4 D_2'  
     e( 15 - 15) =     24.41483  eV     1   --> B_2  G_4 D_2'  
     e( 16 - 17) =     26.03239  eV     2   --> E    G_5 D_5   
     e( 18 - 18) =     27.39010  eV     1   --> B_1  G_3 D_2   
     e( 19 - 19) =     28.30583  eV     1   --> A_1  G_1 D_1   
     e( 20 - 20) =     30.06169  eV     1   --> B_2  G_4 D_2'  
     e( 21 - 21) =     32.80749  eV     1   --> A_1  G_1 D_1   
     e( 22 - 23) =     33.24385  eV     2   --> E    G_5 D_5   
     e( 24 - 25) =     38.48102  eV     2   --> E    G_5 D_5   
     e( 26 - 26) =     38.70407  eV     1   --> A_1  G_1 D_1   
     e( 27 - 28) =     38.94201  eV     2   --> E    G_5 D_5   
     e( 29 - 29) =     39.31996  eV     1   --> B_1  G_3 D_2   
     e( 30 - 30) =     40.33353  eV     1   --> B_2  G_4 D_2'  
     e( 31 - 31) =     42.87066  eV     1   --> A_1  G_1 D_1   
     e( 32 - 32) =     44.22342  eV     1   --> A_2  G_2 D_1'  

 **************************************************************************

 **************************************************************************

                    xk=(  -0.33333,   0.00000,   0.00000  )

     Band symmetry, C_4v (4mm)  point group:

     e(  1 -  1) =     -5.35138  eV     1   --> A_1  G_1 D_1   
     e(  2 -  2) =      4.26219  eV     1   --> B_2  G_4 D_2'  
     e(  3 -  4) =      5.07667  eV     2   --> E    G_5 D_5   
     e(  5 -  5) =      7.95122  eV     1   --> A_1  G_1 D_1   
     e(  6 -  6) =     10.59638  eV     1   --> B_2  G_4 D_2'  
     e(  7 -  8) =     10.67822  eV     2   --> E    G_5 D_5   
     e(  9 -  9) =     12.93591  eV     1   --> B_2  G_4 D_2'  
     e( 10 - 10) =     14.63288  eV     1   --> A_2  G_2 D_1'  
     e( 11 - 11) =     15.92868  eV     1   --> A_1  G_1 D_1   
     e( 12 - 13) =     18.39369  eV     2   --> E    G_5 D_5   
     e( 14 - 14) =     18.94363  eV     1   --> B_2  G_4 D_2'  
     e( 15 - 15) =     24.67141  eV     1   --> B_2  G_4 D_2'  
     e( 16 - 17) =     25.81006  eV     2   --> E    G_5 D_5   
     e( 18 - 18) =     27.15587  eV     1   --> B_1  G_3 D_2   
     e( 19 - 19) =     28.14835  eV     1   --> A_1  G_1 D_1   
     e( 20 - 20) =     30.13493  eV     1   --> B_2  G_4 D_2'  
     e( 21 - 21) =     32.82859  eV     1   --> A_1  G_1 D_1   
     e( 22 - 23) =     33.29835  eV     2   --> E    G_5 D_5   
     e( 24 - 25) =     38.25445  eV     2   --> E    G_5 D_5   
     e( 26 - 26) =     38.47676  eV     1   --> A_1  G_1 D_1   
     e( 27 - 28) =     39.19382  eV     2   --> E    G_5 D_5   
     e( 29 - 29) =     39.53314  eV     1   --> B_1  G_3 D_2   
     e( 30 - 30) =     39.99596  eV     1   --> B_2  G_4 D_2'  
     e( 31 - 31) =     42.68978  eV     1   --> A_1  G_1 D_1   
     e( 32 - 32) =     44.15738  eV     1   --> A_2  G_2 D_1'  

 **************************************************************************

 **************************************************************************

                    xk=(  -0.35000,   0.00000,   0.00000  )

     Band symmetry, C_4v (4mm)  point group:

     e(  1 -  1) =     -5.30091  eV     1   --> A_1  G_1 D_1   
     e(  2 -  2) =      4.11632  eV     1   --> B_2  G_4 D_2'  
     e(  3 -  4) =      4.99961  eV     2   --> E    G_5 D_5   
     e(  5 -  5) =      7.88620  eV     1   --> A_1  G_1 D_1   
     e(  6 -  6) =     10.50077  eV     1   --> B_2  G_4 D_2'  
     e(  7 -  8) =     10.81448  eV     2   --> E    G_5 D_5   
     e(  9 -  9) =     13.03738  eV     1   --> B_2  G_4 D_2'  
     e( 10 - 10) =     14.68880  eV     1   --> A_2  G_2 D_1'  
     e( 11 - 11) =     16.08792  eV     1   --> A_1  G_1 D_1   
     e( 12 - 13) =     18.47870  eV     2   --> E    G_5 D_5   
     e( 14 - 14) =     19.03794  eV     1   --> B_2  G_4 D_2'  
     e( 15 - 15) =     24.93176  eV     1   --> B_2  G_4 D_2'  
     e( 16 - 17) =     25.58926  eV     2   --> E    G_5 D_5   
     e( 18 - 18) =     26.92135  eV     1   --> B_1  G_3 D_2   
     e( 19 - 19) =     27.99059  eV     1   --> A_1  G_1 D_1   
     e( 20 - 20) =     30.21400  eV     1   --> B_2  G_4 D_2'  
     e( 21 - 21) =     32.84238  eV     1   --> A_1  G_1 D_1   
     e( 22 - 23) =     33.34919  eV     2   --> E    G_5 D_5   
     e( 24 - 25) =     38.01713  eV     2   --> E    G_5 D_5   
     e( 26 - 26) =     38.24274  eV     1   --> A_1  G_1 D_1   
     e( 27 - 28) =     39.45720  eV     2   --> E    G_5 D_5   
     e( 29 - 29) =     39.65729  eV     1   --> B_2  G_4 D_2'  
     e( 30 - 30) =     39.74056  eV     1   --> B_1  G_3 D_2   
     e( 31 - 31) =     42.52108  eV     1   --> A_1  G_1 D_1   
     e( 32 - 32) =     44.09087  eV     1   --> A_2  G_2 D_1'  

 **************************************************************************

 **************************************************************************

                    xk=(  -0.36667,   0.00000,   0.00000  )

     Band symmetry, C_4v (4mm)  point group:

     e(  1 -  1) =     -5.24804  eV     1   --> A_1  G_1 D_1   
     e(  2 -  2) =      3.96942  eV     1   --> B_2  G_4 D_2'  
     e(  3 -  4) =      4.92359  eV     2   --> E    G_5 D_5   
     e(  5 -  5) =      7.82173  eV     1   --> A_1  G_1 D_1   
     e(  6 -  6) =     10.39208  eV     1   --> B_2  G_4 D_2'  
     e(  7 -  8) =     10.95243  eV     2   --> E    G_5 D_5   
     e(  9 -  9) =     13.15562  eV     1   --> B_2  G_4 D_2'  
     e( 10 - 10) =     14.74744  eV     1   --> A_2  G_2 D_1'  
     e( 11 - 11) =     16.25060  eV     1   --> A_1  G_1 D_1   
     e( 12 - 13) =     18.56709  eV     2   --> E    G_5 D_5   
     e( 14 - 14) =     19.13439  eV     1   --> B_2  G_4 D_2'  
     e( 15 - 15) =     25.19491  eV     1   --> B_2  G_4 D_2'  
     e( 16 - 17) =     25.37033  eV     2   --> E    G_5 D_5   
     e( 18 - 18) =     26.68684  eV     1   --> B_1  G_3 D_2   
     e( 19 - 19) =     27.83274  eV     1   --> A_1  G_1 D_1   
     e( 20 - 20) =     30.29935  eV     1   --> B_2  G_4 D_2'  
     e( 21 - 21) =     32.84830  eV     1   --> A_1  G_1 D_1   
     e( 22 - 23) =     33.39621  eV     2   --> E    G_5 D_5   
     e( 24 - 25) =     37.77484  eV     2   --> E    G_5 D_5   
     e( 26 - 26) =     38.00304  eV     1   --> A_1  G_1 D_1   
     e( 27 - 27) =     39.31795  eV     1   --> B_2  G_4 D_2'  
     e( 28 - 29) =     39.72663  eV     2   --> E    G_5 D_5   
     e( 30 - 30) =     39.94123  eV     1   --> B_1  G_3 D_2   
     e( 31 - 31) =     42.36479  eV     1   --> A_1  G_1 D_1   
     e( 32 - 32) =     44.02412  eV     1   --> A_2  G_2 D_1'  

 **************************************************************************

 **************************************************************************

                    xk=(  -0.38333,   0.00000,   0.00000  )

     Band symmetry, C_4v (4mm)  point group:

     e(  1 -  1) =     -5.19278  eV     1   --> A_1  G_1 D_1   
     e(  2 -  2) =      3.82162  eV     1   --> B_2  G_4 D_2'  
     e(  3 -  4) =      4.84872  eV     2   --> E    G_5 D_5   
     e(  5 -  5) =      7.75801  eV     1   --> A_1  G_1 D_1   
     e(  6 -  6) =     10.27393  eV     1   --> B_2  G_4 D_2'  
     e(  7 -  8) =     11.09192  eV     2   --> E    G_5 D_5   
     e(  9 -  9) =     13.28706  eV     1   --> B_2  G_4 D_2'  
     e( 10 - 10) =     14.80879  eV     1   --> A_2  G_2 D_1'  
     e( 11 - 11) =     16.41637  eV     1   --> A_1  G_1 D_1   
     e( 12 - 13) =     18.65862  eV     2   --> E    G_5 D_5   
     e( 14 - 14) =     19.23317  eV     1   --> B_2  G_4 D_2'  
     e( 15 - 16) =     25.15365  eV     2   --> E    G_5 D_5   
     e( 17 - 17) =     25.45983  eV     1   --> B_2  G_4 D_2'  
     e( 18 - 18) =     26.45259  eV     1   --> B_1  G_3 D_2   
     e( 19 - 19) =     27.67503  eV     1   --> A_1  G_1 D_1   
     e( 20 - 20) =     30.39149  eV     1   --> B_2  G_4 D_2'  
     e( 21 - 21) =     32.84589  eV     1   --> A_1  G_1 D_1   
     e( 22 - 23) =     33.43904  eV     2   --> E    G_5 D_5   
     e( 24 - 25) =     37.52949  eV     2   --> E    G_5 D_5   
     e( 26 - 26) =     37.75884  eV     1   --> A_1  G_1 D_1   
     e( 27 - 27) =     38.97821  eV     1   --> B_2  G_4 D_2'  
     e( 28 - 29) =     40.00044  eV     2   --> E    G_5 D_5   
     e( 30 - 30) =     40.13414  eV     1   --> B_1  G_3 D_2   
     e( 31 - 31) =     42.22080  eV     1   --> A_1  G_1 D_1   
     e( 32 - 32) =     43.95726  eV     1   --> A_2  G_2 D_1'  

 **************************************************************************

 **************************************************************************

                    xk=(  -0.40000,   0.00000,   0.00000  )

     Band symmetry, C_4v (4mm)  point group:

     e(  1 -  1) =     -5.13514  eV     1   --> A_1  G_1 D_1   
     e(  2 -  2) =      3.67304  eV     1   --> B_2  G_4 D_2'  
     e(  3 -  4) =      4.77513  eV     2   --> E    G_5 D_5   
     e(  5 -  5) =      7.69523  eV     1   --> A_1  G_1 D_1   
     e(  6 -  6) =     10.14921  eV     1   --> B_2  G_4 D_2'  
     e(  7 -  8) =     11.23281  eV     2   --> E    G_5 D_5   
     e(  9 -  9) =     13.42889  eV     1   --> B_2  G_4 D_2'  
     e( 10 - 10) =     14.87285  eV     1   --> A_2  G_2 D_1'  
     e( 11 - 11) =     16.58494  eV     1   --> A_1  G_1 D_1   
     e( 12 - 13) =     18.75304  eV     2   --> E    G_5 D_5   
     e( 14 - 14) =     19.33448  eV     1   --> B_2  G_4 D_2'  
     e( 15 - 16) =     24.93965  eV     2   --> E    G_5 D_5   
     e( 17 - 17) =     25.72550  eV     1   --> B_2  G_4 D_2'  
     e( 18 - 18) =     26.21883  eV     1   --> B_1  G_3 D_2   
     e( 19 - 19) =     27.51780  eV     1   --> A_1  G_1 D_1   
     e( 20 - 20) =     30.49100  eV     1   --> B_2  G_4 D_2'  
     e( 21 - 21) =     32.83464  eV     1   --> A_1  G_1 D_1   
     e( 22 - 23) =     33.47718  eV     2   --> E    G_5 D_5   
     e( 24 - 25) =     37.28270  eV     2   --> E    G_5 D_5   
     e( 26 - 26) =     37.51140  eV     1   --> A_1  G_1 D_1   
     e( 27 - 27) =     38.63859  eV     1   --> B_2  G_4 D_2'  
     e( 28 - 29) =     40.27773  eV     2   --> E    G_5 D_5   
     e( 30 - 30) =     40.31847  eV     1   --> B_1  G_3 D_2   
     e( 31 - 31) =     42.08898  eV     1   --> A_1  G_1 D_1   
     e( 32 - 32) =     43.89051  eV     1   --> A_2  G_2 D_1'  

 **************************************************************************

 **************************************************************************

                    xk=(  -0.41667,   0.00000,   0.00000  )

     Band symmetry, C_4v (4mm)  point group:

     e(  1 -  1) =     -5.07512  eV     1   --> A_1  G_1 D_1   
     e(  2 -  2) =      3.52381  eV     1   --> B_2  G_4 D_2'  
     e(  3 -  4) =      4.70290  eV     2   --> E    G_5 D_5   
     e(  5 -  5) =      7.63356  eV     1   --> A_1  G_1 D_1   
     e(  6 -  6) =     10.02016  eV     1   --> B_2  G_4 D_2'  
     e(  7 -  8) =     11.37501  eV     2   --> E    G_5 D_5   
     e(  9 -  9) =     13.57888  eV     1   --> B_2  G_4 D_2'  
     e( 10 - 10) =     14.93963  eV     1   --> A_2  G_2 D_1'  
     e( 11 - 11) =     16.75595  eV     1   --> A_1  G_1 D_1   
     e( 12 - 13) =     18.85001  eV     2   --> E    G_5 D_5   
     e( 14 - 14) =     19.43851  eV     1   --> B_2  G_4 D_2'  
     e( 15 - 16) =     24.72878  eV     2   --> E    G_5 D_5   
     e( 17 - 17) =     25.98577  eV     1   --> B_1  G_3 D_2   
     e( 18 - 18) =     25.99083  eV     1   --> B_2  G_4 D_2'  
     e( 19 - 19) =     27.36128  eV     1   --> A_1  G_1 D_1   
     e( 20 - 20) =     30.59852  eV     1   --> B_2  G_4 D_2'  
     e( 21 - 21) =     32.81394  eV     1   --> A_1  G_1 D_1   
     e( 22 - 23) =     33.50981  eV     2   --> E    G_5 D_5   
     e( 24 - 25) =     37.03602  eV     2   --> E    G_5 D_5   
     e( 26 - 26) =     37.26208  eV     1   --> A_1  G_1 D_1   
     e( 27 - 27) =     38.29933  eV     1   --> B_2  G_4 D_2'  
     e( 28 - 28) =     40.49344  eV     1   --> B_1  G_3 D_2   
     e( 29 - 30) =     40.55769  eV     2   --> E    G_5 D_5   
     e( 31 - 31) =     41.96893  eV     1   --> A_1  G_1 D_1   
     e( 32 - 32) =     43.82404  eV     1   --> A_2  G_2 D_1'  

 **************************************************************************

 **************************************************************************

                    xk=(  -0.43333,   0.00000,   0.00000  )

     Band symmetry, C_4v (4mm)  point group:

     e(  1 -  1) =     -5.01273  eV     1   --> A_1  G_1 D_1   
     e(  2 -  2) =      3.37400  eV     1   --> B_2  G_4 D_2'  
     e(  3 -  4) =      4.63213  eV     2   --> E    G_5 D_5   
     e(  5 -  5) =      7.57315  eV     1   --> A_1  G_1 D_1   
     e(  6 -  6) =      9.88850  eV     1   --> B_2  G_4 D_2'  
     e(  7 -  8) =     11.51840  eV     2   --> E    G_5 D_5   
     e(  9 -  9) =     13.73531  eV     1   --> B_2  G_4 D_2'  
     e( 10 - 10) =     15.00911  eV     1   --> A_2  G_2 D_1'  
     e( 11 - 11) =     16.92908  eV     1   --> A_1  G_1 D_1   
     e( 12 - 13) =     18.94911  eV     2   --> E    G_5 D_5   
     e( 14 - 14) =     19.54541  eV     1   --> B_2  G_4 D_2'  
     e( 15 - 16) =     24.52156  eV     2   --> E    G_5 D_5   
     e( 17 - 17) =     25.75359  eV     1   --> B_1  G_3 D_2   
     e( 18 - 18) =     26.25472  eV     1   --> B_2  G_4 D_2'  
     e( 19 - 19) =     27.20572  eV     1   --> A_1  G_1 D_1   
     e( 20 - 20) =     30.71473  eV     1   --> B_2  G_4 D_2'  
     e( 21 - 21) =     32.78315  eV     1   --> A_1  G_1 D_1   
     e( 22 - 23) =     33.53573  eV     2   --> E    G_5 D_5   
     e( 24 - 25) =     36.79132  eV     2   --> E    G_5 D_5   
     e( 26 - 26) =     37.01228  eV     1   --> A_1  G_1 D_1   
     e( 27 - 27) =     37.96072  eV     1   --> B_2  G_4 D_2'  
     e( 28 - 28) =     40.65843  eV     1   --> B_1  G_3 D_2   
     e( 29 - 30) =     40.83955  eV     2   --> E    G_5 D_5   
     e( 31 - 31) =     41.86025  eV     1   --> A_1  G_1 D_1   
     e( 32 - 32) =     43.75799  eV     1   --> A_2  G_2 D_1'  

 **************************************************************************

 **************************************************************************

                    xk=(  -0.45000,   0.00000,   0.00000  )

     Band symmetry, C_4v (4mm)  point group:

     e(  1 -  1) =     -4.94799  eV     1   --> A_1  G_1 D_1   
     e(  2 -  2) =      3.22370  eV     1   --> B_2  G_4 D_2'  
     e(  3 -  4) =      4.56290  eV     2   --> E    G_5 D_5   
     e(  5 -  5) =      7.51414  eV     1   --> A_1  G_1 D_1   
     e(  6 -  6) =      9.75558  eV     1   --> B_2  G_4 D_2'  
     e(  7 -  8) =     11.66291  eV     2   --> E    G_5 D_5   
     e(  9 -  9) =     13.89686  eV     1   --> B_2  G_4 D_2'  
     e( 10 - 10) =     15.08130  eV     1   --> A_2  G_2 D_1'  
     e( 11 - 11) =     17.10398  eV     1   --> A_1  G_1 D_1   
     e( 12 - 13) =     19.04983  eV     2   --> E    G_5 D_5   
     e( 14 - 14) =     19.65535  eV     1   --> B_2  G_4 D_2'  
     e( 15 - 16) =     24.31859  eV     2   --> E    G_5 D_5   
     e( 17 - 17) =     25.52245  eV     1   --> B_1  G_3 D_2   
     e( 18 - 18) =     26.51603  eV     1   --> B_2  G_4 D_2'  
     e( 19 - 19) =     27.05144  eV     1   --> A_1  G_1 D_1   
     e( 20 - 20) =     30.84036  eV     1   --> B_2  G_4 D_2'  
     e( 21 - 21) =     32.74155  eV     1   --> A_1  G_1 D_1   
     e( 22 - 23) =     33.55326  eV     2   --> E    G_5 D_5   
     e( 24 - 25) =     36.55085  eV     2   --> E    G_5 D_5   
     e( 26 - 26) =     36.76344  eV     1   --> A_1  G_1 D_1   
     e( 27 - 27) =     37.62307  eV     1   --> B_2  G_4 D_2'  
     e( 28 - 28) =     40.81294  eV     1   --> B_1  G_3 D_2   
     e( 29 - 30) =     41.12249  eV     2   --> E    G_5 D_5   
     e( 31 - 31) =     41.76253  eV     1   --> A_1  G_1 D_1   
     e( 32 - 32) =     43.69251  eV     1   --> A_2  G_2 D_1'  

 **************************************************************************

 **************************************************************************

                    xk=(  -0.46667,   0.00000,   0.00000  )

     Band symmetry, C_4v (4mm)  point group:

     e(  1 -  1) =     -4.88091  eV     1   --> A_1  G_1 D_1   
     e(  2 -  2) =      3.07299  eV     1   --> B_2  G_4 D_2'  
     e(  3 -  4) =      4.49528  eV     2   --> E    G_5 D_5   
     e(  5 -  5) =      7.45666  eV     1   --> A_1  G_1 D_1   
     e(  6 -  6) =      9.62242  eV     1   --> B_2  G_4 D_2'  
     e(  7 -  8) =     11.80844  eV     2   --> E    G_5 D_5   
     e(  9 -  9) =     14.06248  eV     1   --> B_2  G_4 D_2'  
     e( 10 - 10) =     15.15620  eV     1   --> A_2  G_2 D_1'  
     e( 11 - 11) =     17.28028  eV     1   --> A_1  G_1 D_1   
     e( 12 - 13) =     19.15154  eV     2   --> E    G_5 D_5   
     e( 14 - 14) =     19.76849  eV     1   --> B_2  G_4 D_2'  
     e( 15 - 16) =     24.12060  eV     2   --> E    G_5 D_5   
     e( 17 - 17) =     25.29247  eV     1   --> B_1  G_3 D_2   
     e( 18 - 18) =     26.77358  eV     1   --> B_2  G_4 D_2'  
     e( 19 - 19) =     26.89875  eV     1   --> A_1  G_1 D_1   
     e( 20 - 20) =     30.97618  eV     1   --> B_2  G_4 D_2'  
     e( 21 - 21) =     32.68841  eV     1   --> A_1  G_1 D_1   
     e( 22 - 23) =     33.56010  eV     2   --> E    G_5 D_5   
     e( 24 - 25) =     36.31748  eV     2   --> E    G_5 D_5   
     e( 26 - 26) =     36.51707  eV     1   --> A_1  G_1 D_1   
     e( 27 - 27) =     37.28672  eV     1   --> B_2  G_4 D_2'  
     e( 28 - 28) =     40.95663  eV     1   --> B_1  G_3 D_2   
     e( 29 - 30) =     41.40555  eV     2   --> E    G_5 D_5   
     e( 31 - 31) =     41.67531  eV     1   --> A_1  G_1 D_1   
     e( 32 - 32) =     43.62772  eV     1   --> A_2  G_2 D_1'  

 **************************************************************************

 **************************************************************************

                    xk=(  -0.48333,   0.00000,   0.00000  )

     Band symmetry, C_4v (4mm)  point group:

     e(  1 -  1) =     -4.81151  eV     1   --> A_1  G_1 D_1   
     e(  2 -  2) =      2.92194  eV     1   --> B_2  G_4 D_2'  
     e(  3 -  4) =      4.42932  eV     2   --> E    G_5 D_5   
     e(  5 -  5) =      7.40084  eV     1   --> A_1  G_1 D_1   
     e(  6 -  6) =      9.48981  eV     1   --> B_2  G_4 D_2'  
     e(  7 -  8) =     11.95495  eV     2   --> E    G_5 D_5   
     e(  9 -  9) =     14.23137  eV     1   --> B_2  G_4 D_2'  
     e( 10 - 10) =     15.23380  eV     1   --> A_2  G_2 D_1'  
     e( 11 - 11) =     17.45760  eV     1   --> A_1  G_1 D_1   
     e( 12 - 13) =     19.25343  eV     2   --> E    G_5 D_5   
     e( 14 - 14) =     19.88496  eV     1   --> B_2  G_4 D_2'  
     e( 15 - 16) =     23.92846  eV     2   --> E    G_5 D_5   
     e( 17 - 17) =     25.06380  eV     1   --> B_1  G_3 D_2   
     e( 18 - 18) =     26.74799  eV     1   --> A_1  G_1 D_1   
     e( 19 - 19) =     27.02622  eV     1   --> B_2  G_4 D_2'  
     e( 20 - 20) =     31.12293  eV     1   --> B_2  G_4 D_2'  
     e( 21 - 21) =     32.62294  eV     1   --> A_1  G_1 D_1   
     e( 22 - 23) =     33.55323  eV     2   --> E    G_5 D_5   
     e( 24 - 25) =     36.09476  eV     2   --> E    G_5 D_5   
     e( 26 - 26) =     36.27463  eV     1   --> A_1  G_1 D_1   
     e( 27 - 27) =     36.95200  eV     1   --> B_2  G_4 D_2'  
     e( 28 - 28) =     41.08938  eV     1   --> B_1  G_3 D_2   
     e( 29 - 29) =     41.59818  eV     1   --> A_1  G_1 D_1   
     e( 30 - 31) =     41.68752  eV     2   --> E    G_5 D_5   
     e( 32 - 32) =     43.56374  eV     1   --> A_2  G_2 D_1'  

 **************************************************************************

 **************************************************************************

                    xk=(  -0.50000,   0.00000,   0.00000  )

     Band symmetry, C_4v (4mm)  point group:

     e(  1 -  1) =     -4.73978  eV     1   --> A_1  G_1 D_1   
     e(  2 -  2) =      2.77062  eV     1   --> B_2  G_4 D_2'  
     e(  3 -  4) =      4.36508  eV     2   --> E    G_5 D_5   
     e(  5 -  5) =      7.34677  eV     1   --> A_1  G_1 D_1   
     e(  6 -  6) =      9.35838  eV     1   --> B_2  G_4 D_2'  
     e(  7 -  8) =     12.10235  eV     2   --> E    G_5 D_5   
     e(  9 -  9) =     14.40284  eV     1   --> B_2  G_4 D_2'  
     e( 10 - 10) =     15.31410  eV     1   --> A_2  G_2 D_1'  
     e( 11 - 11) =     17.63549  eV     1   --> A_1  G_1 D_1   
     e( 12 - 13) =     19.35447  eV     2   --> E    G_5 D_5   
     e( 14 - 14) =     20.00490  eV     1   --> B_2  G_4 D_2'  
     e( 15 - 16) =     23.74323  eV     2   --> E    G_5 D_5   
     e( 17 - 17) =     24.83654  eV     1   --> B_1  G_3 D_2   
     e( 18 - 18) =     26.59954  eV     1   --> A_1  G_1 D_1   
     e( 19 - 19) =     27.27279  eV     1   --> B_2  G_4 D_2'  
     e( 20 - 20) =     31.28123  eV     1   --> B_2  G_4 D_2'  
     e( 21 - 21) =     32.54434  eV     1   --> A_1  G_1 D_1   
     e( 22 - 23) =     33.52871  eV     2   --> E    G_5 D_5   
     e( 24 - 25) =     35.88700  eV     2   --> E    G_5 D_5   
     e( 26 - 26) =     36.03757  eV     1   --> A_1  G_1 D_1   
     e( 27 - 27) =     36.61930  eV     1   --> B_2  G_4 D_2'  
     e( 28 - 28) =     41.21113  eV     1   --> B_1  G_3 D_2   
     e( 29 - 29) =     41.53069  eV     1   --> A_1  G_1 D_1   
     e( 30 - 31) =     41.96620  eV     2   --> E    G_5 D_5   
     e( 32 - 32) =     43.50067  eV     1   --> A_2  G_2 D_1'  

 **************************************************************************

 **************************************************************************

                    xk=(  -0.51667,   0.00000,   0.00000  )

     Band symmetry, C_4v (4mm)  point group:

     e(  1 -  1) =     -4.66575  eV     1   --> A_1  G_1 D_1   
     e(  2 -  2) =      2.61909  eV     1   --> B_2  G_4 D_2'  
     e(  3 -  4) =      4.30262  eV     2   --> E    G_5 D_5   
     e(  5 -  5) =      7.29457  eV     1   --> A_1  G_1 D_1   
     e(  6 -  6) =      9.22864  eV     1   --> B_2  G_4 D_2'  
     e(  7 -  8) =     12.25061  eV     2   --> E    G_5 D_5   
     e(  9 -  9) =     14.57635  eV     1   --> B_2  G_4 D_2'  
     e( 10 - 10) =     15.39709  eV     1   --> A_2  G_2 D_1'  
     e( 11 - 11) =     17.81351  eV     1   --> A_1  G_1 D_1   
     e( 12 - 13) =     19.45337  eV     2   --> E    G_5 D_5   
     e( 14 - 14) =     20.12841  eV     1   --> B_2  G_4 D_2'  
     e( 15 - 16) =     23.56624  eV     2   --> E    G_5 D_5   
     e( 17 - 17) =     24.61078  eV     1   --> B_1  G_3 D_2   
     e( 18 - 18) =     26.45381  eV     1   --> A_1  G_1 D_1   
     e( 19 - 19) =     27.51224  eV     1   --> B_2  G_4 D_2'  
     e( 20 - 20) =     31.45160  eV     1   --> B_2  G_4 D_2'  
     e( 21 - 21) =     32.45188  eV     1   --> A_1  G_1 D_1   
     e( 22 - 23) =     33.48201  eV     2   --> E    G_5 D_5   
     e( 24 - 25) =     35.69919  eV     2   --> E    G_5 D_5   
     e( 26 - 26) =     35.80727  eV     1   --> A_1  G_1 D_1   
     e( 27 - 27) =     36.28911  eV     1   --> B_2  G_4 D_2'  
     e( 28 - 28) =     41.32209  eV     1   --> B_1  G_3 D_2   
     e( 29 - 29) =     41.47242  eV     1   --> A_1  G_1 D_1   
     e( 30 - 31) =     42.23786  eV     2   --> E    G_5 D_5   
     e( 32 - 32) =     43.43862  eV     1   --> A_2  G_2 D_1'  

 **************************************************************************

 **************************************************************************

                    xk=(  -0.53333,   0.00000,   0.00000  )

     Band symmetry, C_4v (4mm)  point group:

     e(  1 -  1) =     -4.58944  eV     1   --> A_1  G_1 D_1   
     e(  2 -  2) =      2.46741  eV     1   --> B_2  G_4 D_2'  
     e(  3 -  4) =      4.24198  eV     2   --> E    G_5 D_5   
     e(  5 -  5) =      7.24432  eV     1   --> A_1  G_1 D_1   
     e(  6 -  6) =      9.10099  eV     1   --> B_2  G_4 D_2'  
     e(  7 -  8) =     12.39967  eV     2   --> E    G_5 D_5   
     e(  9 -  9) =     14.75143  eV     1   --> B_2  G_4 D_2'  
     e( 10 - 10) =     15.48278  eV     1   --> A_2  G_2 D_1'  
     e( 11 - 11) =     17.99115  eV     1   --> A_1  G_1 D_1   
     e( 12 - 13) =     19.54854  eV     2   --> E    G_5 D_5   
     e( 14 - 14) =     20.25562  eV     1   --> B_2  G_4 D_2'  
     e( 15 - 16) =     23.39913  eV     2   --> E    G_5 D_5   
     e( 17 - 17) =     24.38663  eV     1   --> B_1  G_3 D_2   
     e( 18 - 18) =     26.31126  eV     1   --> A_1  G_1 D_1   
     e( 19 - 19) =     27.74361  eV     1   --> B_2  G_4 D_2'  
     e( 20 - 20) =     31.63428  eV     1   --> B_2  G_4 D_2'  
     e( 21 - 21) =     32.34490  eV     1   --> A_1  G_1 D_1   
     e( 22 - 23) =     33.40849  eV     2   --> E    G_5 D_5   
     e( 24 - 25) =     35.53635  eV     2   --> E    G_5 D_5   
     e( 26 - 26) =     35.58497  eV     1   --> A_1  G_1 D_1   
     e( 27 - 27) =     35.96207  eV     1   --> B_2  G_4 D_2'  
     e( 28 - 28) =     41.42258  eV     1   --> B_1  G_3 D_2   
     e( 29 - 29) =     41.42299  eV     1   --> A_1  G_1 D_1   
     e( 30 - 31) =     42.49347  eV     2   --> E    G_5 D_5   
     e( 32 - 32) =     43.37768  eV     1   --> A_2  G_2 D_1'  

 **************************************************************************

 **************************************************************************

                    xk=(  -0.55000,   0.00000,   0.00000  )

     Band symmetry, C_4v (4mm)  point group:

     e(  1 -  1) =     -4.51085  eV     1   --> A_1  G_1 D_1   
     e(  2 -  2) =      2.31564  eV     1   --> B_2  G_4 D_2'  
     e(  3 -  4) =      4.18320  eV     2   --> E    G_5 D_5   
     e(  5 -  5) =      7.19612  eV     1   --> A_1  G_1 D_1   
     e(  6 -  6) =      8.97576  eV     1   --> B_2  G_4 D_2'  
     e(  7 -  8) =     12.54949  eV     2   --> E    G_5 D_5   
     e(  9 -  9) =     14.92771  eV     1   --> B_2  G_4 D_2'  
     e( 10 - 10) =     15.57117  eV     1   --> A_2  G_2 D_1'  
     e( 11 - 11) =     18.16783  eV     1   --> A_1  G_1 D_1   
     e( 12 - 13) =     19.63795  eV     2   --> E    G_5 D_5   
     e( 14 - 14) =     20.38663  eV     1   --> B_2  G_4 D_2'  
     e( 15 - 16) =     23.24395  eV     2   --> E    G_5 D_5   
     e( 17 - 17) =     24.16415  eV     1   --> B_1  G_3 D_2   
     e( 18 - 18) =     26.17242  eV     1   --> A_1  G_1 D_1   
     e( 19 - 19) =     27.96614  eV     1   --> B_2  G_4 D_2'  
     e( 20 - 20) =     31.82905  eV     1   --> B_2  G_4 D_2'  
     e( 21 - 21) =     32.22297  eV     1   --> A_1  G_1 D_1   
     e( 22 - 23) =     33.30449  eV     2   --> E    G_5 D_5   
     e( 24 - 24) =     35.37173  eV     1   --> A_1  G_1 D_1   
     e( 25 - 26) =     35.40249  eV     2   --> E    G_5 D_5   
     e( 27 - 27) =     35.63912  eV     1   --> B_2  G_4 D_2'  
     e( 28 - 28) =     41.38198  eV     1   --> A_1  G_1 D_1   
     e( 29 - 29) =     41.51305  eV     1   --> B_1  G_3 D_2   
     e( 30 - 31) =     42.70650  eV     2   --> E    G_5 D_5   
     e( 32 - 32) =     43.31791  eV     1   --> A_2  G_2 D_1'  

 **************************************************************************

 **************************************************************************

                    xk=(  -0.56667,   0.00000,   0.00000  )

     Band symmetry, C_4v (4mm)  point group:

     e(  1 -  1) =     -4.43000  eV     1   --> A_1  G_1 D_1   
     e(  2 -  2) =      2.16384  eV     1   --> B_2  G_4 D_2'  
     e(  3 -  4) =      4.12631  eV     2   --> E    G_5 D_5   
     e(  5 -  5) =      7.15004  eV     1   --> A_1  G_1 D_1   
     e(  6 -  6) =      8.85321  eV     1   --> B_2  G_4 D_2'  
     e(  7 -  8) =     12.70004  eV     2   --> E    G_5 D_5   
     e(  9 -  9) =     15.10483  eV     1   --> B_2  G_4 D_2'  
     e( 10 - 10) =     15.66224  eV     1   --> A_2  G_2 D_1'  
     e( 11 - 11) =     18.34292  eV     1   --> A_1  G_1 D_1   
     e( 12 - 13) =     19.71912  eV     2   --> E    G_5 D_5   
     e( 14 - 14) =     20.52153  eV     1   --> B_2  G_4 D_2'  
     e( 15 - 16) =     23.10317  eV     2   --> E    G_5 D_5   
     e( 17 - 17) =     23.94341  eV     1   --> B_1  G_3 D_2   
     e( 18 - 18) =     26.03784  eV     1   --> A_1  G_1 D_1   
     e( 19 - 19) =     28.17921  eV     1   --> B_2  G_4 D_2'  
     e( 20 - 20) =     32.03498  eV     1   --> B_2  G_4 D_2'  
     e( 21 - 21) =     32.08575  eV     1   --> A_1  G_1 D_1   
     e( 22 - 23) =     33.16850  eV     2   --> E    G_5 D_5   
     e( 24 - 24) =     35.16833  eV     1   --> A_1  G_1 D_1   
     e( 25 - 26) =     35.29943  eV     2   --> E    G_5 D_5   
     e( 27 - 27) =     35.32167  eV     1   --> B_2  G_4 D_2'  
     e( 28 - 28) =     41.34899  eV     1   --> A_1  G_1 D_1   
     e( 29 - 29) =     41.59403  eV     1   --> B_1  G_3 D_2   
     e( 30 - 31) =     42.80826  eV     2   --> E    G_5 D_5   
     e( 32 - 32) =     43.25941  eV     1   --> A_2  G_2 D_1'  

 **************************************************************************

 **************************************************************************

                    xk=(  -0.58333,   0.00000,   0.00000  )

     Band symmetry, C_4v (4mm)  point group:

     e(  1 -  1) =     -4.34691  eV     1   --> A_1  G_1 D_1   
     e(  2 -  2) =      2.01206  eV     1   --> B_2  G_4 D_2'  
     e(  3 -  4) =      4.07136  eV     2   --> E    G_5 D_5   
     e(  5 -  5) =      7.10616  eV     1   --> A_1  G_1 D_1   
     e(  6 -  6) =      8.73354  eV     1   --> B_2  G_4 D_2'  
     e(  7 -  8) =     12.85128  eV     2   --> E    G_5 D_5   
     e(  9 -  9) =     15.28250  eV     1   --> B_2  G_4 D_2'  
     e( 10 - 10) =     15.75600  eV     1   --> A_2  G_2 D_1'  
     e( 11 - 11) =     18.51571  eV     1   --> A_1  G_1 D_1   
     e( 12 - 13) =     19.78913  eV     2   --> E    G_5 D_5   
     e( 14 - 14) =     20.66038  eV     1   --> B_2  G_4 D_2'  
     e( 15 - 16) =     22.97977  eV     2   --> E    G_5 D_5   
     e( 17 - 17) =     23.72451  eV     1   --> B_1  G_3 D_2   
     e( 18 - 18) =     25.90819  eV     1   --> A_1  G_1 D_1   
     e( 19 - 19) =     28.38254  eV     1   --> B_2  G_4 D_2'  
     e( 20 - 20) =     31.93343  eV     1   --> A_1  G_1 D_1   
     e( 21 - 21) =     32.24994  eV     1   --> B_2  G_4 D_2'  
     e( 22 - 23) =     33.00175  eV     2   --> E    G_5 D_5   
     e( 24 - 24) =     34.97524  eV     1   --> A_1  G_1 D_1   
     e( 25 - 25) =     35.01216  eV     1   --> B_2  G_4 D_2'  
     e( 26 - 27) =     35.22622  eV     2   --> E    G_5 D_5   
     e( 28 - 28) =     41.32369  eV     1   --> A_1  G_1 D_1   
     e( 29 - 29) =     41.66623  eV     1   --> B_1  G_3 D_2   
     e( 30 - 31) =     42.76429  eV     2   --> E    G_5 D_5   
     e( 32 - 32) =     43.20222  eV     1   --> A_2  G_2 D_1'  

 **************************************************************************

 **************************************************************************

                    xk=(  -0.60000,   0.00000,   0.00000  )

     Band symmetry, C_4v (4mm)  point group:

     e(  1 -  1) =     -4.26160  eV     1   --> A_1  G_1 D_1   
     e(  2 -  2) =      1.86035  eV     1   --> B_2  G_4 D_2'  
     e(  3 -  4) =      4.01837  eV     2   --> E    G_5 D_5   
     e(  5 -  5) =      7.06456  eV     1   --> A_1  G_1 D_1   
     e(  6 -  6) =      8.61695  eV     1   --> B_2  G_4 D_2'  
     e(  7 -  8) =     13.00319  eV     2   --> E    G_5 D_5   
     e(  9 -  9) =     15.46045  eV     1   --> B_2  G_4 D_2'  
     e( 10 - 10) =     15.85244  eV     1   --> A_2  G_2 D_1'  
     e( 11 - 11) =     18.68540  eV     1   --> A_1  G_1 D_1   
     e( 12 - 13) =     19.84461  eV     2   --> E    G_5 D_5   
     e( 14 - 14) =     20.80325  eV     1   --> B_2  G_4 D_2'  
     e( 15 - 16) =     22.87707  eV     2   --> E    G_5 D_5   
     e( 17 - 17) =     23.50749  eV     1   --> B_1  G_3 D_2   
     e( 18 - 18) =     25.78418  eV     1   --> A_1  G_1 D_1   
     e( 19 - 19) =     28.57596  eV     1   --> B_2  G_4 D_2'  
     e( 20 - 20) =     31.76636  eV     1   --> A_1  G_1 D_1   
     e( 21 - 21) =     32.46927  eV     1   --> B_2  G_4 D_2'  
     e( 22 - 23) =     32.80778  eV     2   --> E    G_5 D_5   
     e( 24 - 24) =     34.71523  eV     1   --> B_2  G_4 D_2'  
     e( 25 - 25) =     34.79256  eV     1   --> A_1  G_1 D_1   
     e( 26 - 27) =     35.17953  eV     2   --> E    G_5 D_5   
     e( 28 - 28) =     41.30561  eV     1   --> A_1  G_1 D_1   
     e( 29 - 29) =     41.73027  eV     1   --> B_1  G_3 D_2   
     e( 30 - 31) =     42.64929  eV     2   --> E    G_5 D_5   
     e( 32 - 32) =     43.14641  eV     1   --> A_2  G_2 D_1'  

 **************************************************************************

 **************************************************************************

                    xk=(  -0.61667,   0.00000,   0.00000  )

     Band symmetry, C_4v (4mm)  point group:

     e(  1 -  1) =     -4.17407  eV     1   --> A_1  G_1 D_1   
     e(  2 -  2) =      1.70879  eV     1   --> B_2  G_4 D_2'  
     e(  3 -  4) =      3.96738  eV     2   --> E    G_5 D_5   
     e(  5 -  5) =      7.02530  eV     1   --> A_1  G_1 D_1   
     e(  6 -  6) =      8.50357  eV     1   --> B_2  G_4 D_2'  
     e(  7 -  8) =     13.15575  eV     2   --> E    G_5 D_5   
     e(  9 -  9) =     15.63844  eV     1   --> B_2  G_4 D_2'  
     e( 10 - 10) =     15.95157  eV     1   --> A_2  G_2 D_1'  
     e( 11 - 11) =     18.85107  eV     1   --> A_1  G_1 D_1   
     e( 12 - 13) =     19.88209  eV     2   --> E    G_5 D_5   
     e( 14 - 14) =     20.95023  eV     1   --> B_2  G_4 D_2'  
     e( 15 - 16) =     22.79855  eV     2   --> E    G_5 D_5   
     e( 17 - 17) =     23.29240  eV     1   --> B_1  G_3 D_2   
     e( 18 - 18) =     25.66668  eV     1   --> A_1  G_1 D_1   
     e( 19 - 19) =     28.75961  eV     1   --> B_2  G_4 D_2'  
     e( 20 - 20) =     31.58539  eV     1   --> A_1  G_1 D_1   
     e( 21 - 22) =     32.59128  eV     2   --> E    G_5 D_5   
     e( 23 - 23) =     32.68280  eV     1   --> B_2  G_4 D_2'  
     e( 24 - 24) =     34.44096  eV     1   --> B_2  G_4 D_2'  
     e( 25 - 25) =     34.62002  eV     1   --> A_1  G_1 D_1   
     e( 26 - 27) =     35.15491  eV     2   --> E    G_5 D_5   
     e( 28 - 28) =     41.29439  eV     1   --> A_1  G_1 D_1   
     e( 29 - 29) =     41.78686  eV     1   --> B_1  G_3 D_2   
     e( 30 - 31) =     42.51272  eV     2   --> E    G_5 D_5   
     e( 32 - 32) =     43.09203  eV     1   --> A_2  G_2 D_1'  

 **************************************************************************

 **************************************************************************

                    xk=(  -0.63333,   0.00000,   0.00000  )

     Band symmetry, C_4v (4mm)  point group:

     e(  1 -  1) =     -4.08436  eV     1   --> A_1  G_1 D_1   
     e(  2 -  2) =      1.55742  eV     1   --> B_2  G_4 D_2'  
     e(  3 -  4) =      3.91840  eV     2   --> E    G_5 D_5   
     e(  5 -  5) =      6.98844  eV     1   --> A_1  G_1 D_1   
     e(  6 -  6) =      8.39351  eV     1   --> B_2  G_4 D_2'  
     e(  7 -  8) =     13.30893  eV     2   --> E    G_5 D_5   
     e(  9 -  9) =     15.81626  eV     1   --> B_2  G_4 D_2'  
     e( 10 - 10) =     16.05337  eV     1   --> A_2  G_2 D_1'  
     e( 11 - 11) =     19.01172  eV     1   --> A_1  G_1 D_1   
     e( 12 - 13) =     19.89835  eV     2   --> E    G_5 D_5   
     e( 14 - 14) =     21.10134  eV     1   --> B_2  G_4 D_2'  
     e( 15 - 16) =     22.74739  eV     2   --> E    G_5 D_5   
     e( 17 - 17) =     23.07931  eV     1   --> B_1  G_3 D_2   
     e( 18 - 18) =     25.55656  eV     1   --> A_1  G_1 D_1   
     e( 19 - 19) =     28.93378  eV     1   --> B_2  G_4 D_2'  
     e( 20 - 20) =     31.39155  eV     1   --> A_1  G_1 D_1   
     e( 21 - 22) =     32.35699  eV     2   --> E    G_5 D_5   
     e( 23 - 23) =     32.86642  eV     1   --> B_2  G_4 D_2'  
     e( 24 - 24) =     34.21307  eV     1   --> B_2  G_4 D_2'  
     e( 25 - 25) =     34.45707  eV     1   --> A_1  G_1 D_1   
     e( 26 - 27) =     35.14782  eV     2   --> E    G_5 D_5   
     e( 28 - 28) =     41.28962  eV     1   --> A_1  G_1 D_1   
     e( 29 - 29) =     41.83677  eV     1   --> B_1  G_3 D_2   
     e( 30 - 31) =     42.37052  eV     2   --> E    G_5 D_5   
     e( 32 - 32) =     43.03917  eV     1   --> A_2  G_2 D_1'  

 **************************************************************************

 **************************************************************************

                    xk=(  -0.65000,   0.00000,   0.00000  )

     Band symmetry, C_4v (4mm)  point group:

     e(  1 -  1) =     -3.99248  eV     1   --> A_1  G_1 D_1   
     e(  2 -  2) =      1.40630  eV     1   --> B_2  G_4 D_2'  
     e(  3 -  4) =      3.87146  eV     2   --> E    G_5 D_5   
     e(  5 -  5) =      6.95404  eV     1   --> A_1  G_1 D_1   
     e(  6 -  6) =      8.28689  eV     1   --> B_2  G_4 D_2'  
     e(  7 -  8) =     13.46272  eV     2   --> E    G_5 D_5   
     e(  9 -  9) =     15.99369  eV     1   --> B_2  G_4 D_2'  
     e( 10 - 10) =     16.15785  eV     1   --> A_2  G_2 D_1'  
     e( 11 - 11) =     19.16619  eV     1   --> A_1  G_1 D_1   
     e( 12 - 13) =     19.89109  eV     2   --> E    G_5 D_5   
     e( 14 - 14) =     21.25662  eV     1   --> B_2  G_4 D_2'  
     e( 15 - 16) =     22.72594  eV     2   --> E    G_5 D_5   
     e( 17 - 17) =     22.86824  eV     1   --> B_1  G_3 D_2   
     e( 18 - 18) =     25.45492  eV     1   --> A_1  G_1 D_1   
     e( 19 - 19) =     29.09889  eV     1   --> B_2  G_4 D_2'  
     e( 20 - 20) =     31.18620  eV     1   --> A_1  G_1 D_1   
     e( 21 - 22) =     32.10904  eV     2   --> E    G_5 D_5   
     e( 23 - 23) =     32.96625  eV     1   --> B_2  G_4 D_2'  
     e( 24 - 24) =     34.08501  eV     1   --> B_2  G_4 D_2'  
     e( 25 - 25) =     34.30289  eV     1   --> A_1  G_1 D_1   
     e( 26 - 27) =     35.15425  eV     2   --> E    G_5 D_5   
     e( 28 - 28) =     41.29084  eV     1   --> A_1  G_1 D_1   
     e( 29 - 29) =     41.88061  eV     1   --> B_1  G_3 D_2   
     e( 30 - 31) =     42.22823  eV     2   --> E    G_5 D_5   
     e( 32 - 32) =     42.98778  eV     1   --> A_2  G_2 D_1'  

 **************************************************************************

 **************************************************************************

                    xk=(  -0.66667,   0.00000,   0.00000  )

     Band symmetry, C_4v (4mm)  point group:

     e(  1 -  1) =     -3.89846  eV     1   --> A_1  G_1 D_1   
     e(  2 -  2) =      1.25548  eV     1   --> B_2  G_4 D_2'  
     e(  3 -  4) =      3.82658  eV     2   --> E    G_5 D_5   
     e(  5 -  5) =      6.92216  eV     1   --> A_1  G_1 D_1   
     e(  6 -  6) =      8.18376  eV     1   --> B_2  G_4 D_2'  
     e(  7 -  8) =     13.61709  eV     2   --> E    G_5 D_5   
     e(  9 -  9) =     16.17056  eV     1   --> B_2  G_4 D_2'  
     e( 10 - 10) =     16.26498  eV     1   --> A_2  G_2 D_1'  
     e( 11 - 11) =     19.31323  eV     1   --> A_1  G_1 D_1   
     e( 12 - 13) =     19.85929  eV     2   --> E    G_5 D_5   
     e( 14 - 14) =     21.41608  eV     1   --> B_2  G_4 D_2'  
     e( 15 - 15) =     22.65925  eV     1   --> B_1  G_3 D_2   
     e( 16 - 17) =     22.73513  eV     2   --> E    G_5 D_5   
[...]
     e( 26 - 26) =     35.29423  eV     1   --> A'             
     e( 27 - 27) =     35.67658  eV     1   --> A''            
     e( 28 - 28) =     36.94412  eV     1   --> A'             
     e( 29 - 29) =     40.76705  eV     1   --> A'             
     e( 30 - 30) =     40.89457  eV     1   --> A''            
     e( 31 - 31) =     41.47823  eV     1   --> A''            
     e( 32 - 32) =     41.54303  eV     1   --> A'             

 **************************************************************************

 **************************************************************************

                    xk=(  -0.72083,   0.72083,   0.05833  )

     Band symmetry, C_s (m)     point group:

     e(  1 -  1) =     -2.22984  eV     1   --> A'             
     e(  2 -  2) =     -0.81502  eV     1   --> A'             
     e(  3 -  3) =      1.82916  eV     1   --> A'             
     e(  4 -  4) =      3.93727  eV     1   --> A''            
     e(  5 -  5) =      7.53626  eV     1   --> A'             
     e(  6 -  6) =     10.99876  eV     1   --> A'             
     e(  7 -  7) =     13.26607  eV     1   --> A''            
     e(  8 -  8) =     13.54812  eV     1   --> A'             
     e(  9 -  9) =     14.70548  eV     1   --> A'             
     e( 10 - 10) =     14.75769  eV     1   --> A''            
     e( 11 - 11) =     20.74705  eV     1   --> A'             
     e( 12 - 12) =     21.14518  eV     1   --> A''            
     e( 13 - 13) =     21.25279  eV     1   --> A'             
     e( 14 - 14) =     22.68582  eV     1   --> A'             
     e( 15 - 15) =     22.76828  eV     1   --> A''            
     e( 16 - 16) =     23.95596  eV     1   --> A'             
     e( 17 - 17) =     25.13731  eV     1   --> A'             
     e( 18 - 18) =     26.29049  eV     1   --> A'             
     e( 19 - 19) =     27.66801  eV     1   --> A''            
     e( 20 - 20) =     28.95044  eV     1   --> A'             
     e( 21 - 21) =     29.14390  eV     1   --> A''            
     e( 22 - 22) =     29.82608  eV     1   --> A'             
     e( 23 - 23) =     31.68117  eV     1   --> A'             
     e( 24 - 24) =     33.44961  eV     1   --> A'             
     e( 25 - 25) =     34.66233  eV     1   --> A''            
     e( 26 - 26) =     35.35316  eV     1   --> A'             
     e( 27 - 27) =     35.68212  eV     1   --> A''            
     e( 28 - 28) =     37.01220  eV     1   --> A'             
     e( 29 - 29) =     40.90252  eV     1   --> A'             
     e( 30 - 30) =     40.92791  eV     1   --> A''            
     e( 31 - 31) =     41.42826  eV     1   --> A''            
     e( 32 - 32) =     41.52687  eV     1   --> A'             

 **************************************************************************

 **************************************************************************

                    xk=(  -0.72500,   0.72500,   0.05000  )

     Band symmetry, C_s (m)     point group:

     e(  1 -  1) =     -2.19289  eV     1   --> A'             
     e(  2 -  2) =     -0.84450  eV     1   --> A'             
     e(  3 -  3) =      1.82200  eV     1   --> A'             
     e(  4 -  4) =      3.91868  eV     1   --> A''            
     e(  5 -  5) =      7.51328  eV     1   --> A'             
     e(  6 -  6) =     10.90914  eV     1   --> A'             
     e(  7 -  7) =     13.36341  eV     1   --> A''            
     e(  8 -  8) =     13.67022  eV     1   --> A'             
     e(  9 -  9) =     14.67497  eV     1   --> A'             
     e( 10 - 10) =     14.74740  eV     1   --> A''            
     e( 11 - 11) =     20.86402  eV     1   --> A'             
     e( 12 - 12) =     21.19702  eV     1   --> A''            
     e( 13 - 13) =     21.30818  eV     1   --> A'             
     e( 14 - 14) =     22.60627  eV     1   --> A'             
     e( 15 - 15) =     22.61915  eV     1   --> A''            
     e( 16 - 16) =     23.86330  eV     1   --> A'             
     e( 17 - 17) =     25.26571  eV     1   --> A'             
     e( 18 - 18) =     26.28703  eV     1   --> A'             
     e( 19 - 19) =     27.70486  eV     1   --> A''            
     e( 20 - 20) =     28.97702  eV     1   --> A''            
     e( 21 - 21) =     29.00329  eV     1   --> A'             
     e( 22 - 22) =     29.71630  eV     1   --> A'             
     e( 23 - 23) =     31.69964  eV     1   --> A'             
     e( 24 - 24) =     33.26032  eV     1   --> A'             
     e( 25 - 25) =     34.78224  eV     1   --> A''            
     e( 26 - 26) =     35.41150  eV     1   --> A'             
     e( 27 - 27) =     35.68742  eV     1   --> A''            
     e( 28 - 28) =     37.08012  eV     1   --> A'             
     e( 29 - 29) =     40.96040  eV     1   --> A''            
     e( 30 - 30) =     41.03043  eV     1   --> A'             
     e( 31 - 31) =     41.38155  eV     1   --> A''            
     e( 32 - 32) =     41.51352  eV     1   --> A'             

 **************************************************************************

 **************************************************************************

                    xk=(  -0.72917,   0.72917,   0.04167  )

     Band symmetry, C_s (m)     point group:

     e(  1 -  1) =     -2.15710  eV     1   --> A'             
     e(  2 -  2) =     -0.87451  eV     1   --> A'             
     e(  3 -  3) =      1.81868  eV     1   --> A'             
     e(  4 -  4) =      3.90074  eV     1   --> A''            
     e(  5 -  5) =      7.49127  eV     1   --> A'             
     e(  6 -  6) =     10.82001  eV     1   --> A'             
     e(  7 -  7) =     13.45748  eV     1   --> A''            
     e(  8 -  8) =     13.79228  eV     1   --> A'             
     e(  9 -  9) =     14.64517  eV     1   --> A'             
     e( 10 - 10) =     14.74212  eV     1   --> A''            
     e( 11 - 11) =     20.95055  eV     1   --> A'             
     e( 12 - 12) =     21.24521  eV     1   --> A''            
     e( 13 - 13) =     21.39032  eV     1   --> A'             
     e( 14 - 14) =     22.47286  eV     1   --> A''            
     e( 15 - 15) =     22.52667  eV     1   --> A'             
     e( 16 - 16) =     23.77312  eV     1   --> A'             
     e( 17 - 17) =     25.39283  eV     1   --> A'             
     e( 18 - 18) =     26.28265  eV     1   --> A'             
     e( 19 - 19) =     27.74469  eV     1   --> A''            
     e( 20 - 20) =     28.81062  eV     1   --> A''            
     e( 21 - 21) =     29.05602  eV     1   --> A'             
     e( 22 - 22) =     29.61287  eV     1   --> A'             
     e( 23 - 23) =     31.71565  eV     1   --> A'             
     e( 24 - 24) =     33.07552  eV     1   --> A'             
     e( 25 - 25) =     34.90354  eV     1   --> A''            
     e( 26 - 26) =     35.46889  eV     1   --> A'             
     e( 27 - 27) =     35.69238  eV     1   --> A''            
     e( 28 - 28) =     37.14750  eV     1   --> A'             
     e( 29 - 29) =     40.99126  eV     1   --> A''            
     e( 30 - 30) =     41.14775  eV     1   --> A'             
     e( 31 - 31) =     41.33894  eV     1   --> A''            
     e( 32 - 32) =     41.50389  eV     1   --> A'             

 **************************************************************************

 **************************************************************************

                    xk=(  -0.73333,   0.73333,   0.03333  )

     Band symmetry, C_s (m)     point group:

     e(  1 -  1) =     -2.12291  eV     1   --> A'             
     e(  2 -  2) =     -0.90451  eV     1   --> A'             
     e(  3 -  3) =      1.81909  eV     1   --> A'             
     e(  4 -  4) =      3.88346  eV     1   --> A''            
     e(  5 -  5) =      7.47022  eV     1   --> A'             
     e(  6 -  6) =     10.73151  eV     1   --> A'             
     e(  7 -  7) =     13.54711  eV     1   --> A''            
     e(  8 -  8) =     13.91366  eV     1   --> A'             
     e(  9 -  9) =     14.61665  eV     1   --> A'             
     e( 10 - 10) =     14.74299  eV     1   --> A''            
     e( 11 - 11) =     21.00249  eV     1   --> A'             
     e( 12 - 12) =     21.28836  eV     1   --> A''            
     e( 13 - 13) =     21.50267  eV     1   --> A'             
     e( 14 - 14) =     22.33084  eV     1   --> A''            
     e( 15 - 15) =     22.44719  eV     1   --> A'             
     e( 16 - 16) =     23.68619  eV     1   --> A'             
     e( 17 - 17) =     25.51807  eV     1   --> A'             
     e( 18 - 18) =     26.27704  eV     1   --> A'             
     e( 19 - 19) =     27.78750  eV     1   --> A''            
     e( 20 - 20) =     28.64478  eV     1   --> A''            
     e( 21 - 21) =     29.10815  eV     1   --> A'             
     e( 22 - 22) =     29.51681  eV     1   --> A'             
     e( 23 - 23) =     31.72710  eV     1   --> A'             
     e( 24 - 24) =     32.89780  eV     1   --> A'             
     e( 25 - 25) =     35.02618  eV     1   --> A''            
     e( 26 - 26) =     35.52504  eV     1   --> A'             
     e( 27 - 27) =     35.69693  eV     1   --> A''            
     e( 28 - 28) =     37.21396  eV     1   --> A'             
     e( 29 - 29) =     41.01906  eV     1   --> A''            
     e( 30 - 30) =     41.25008  eV     1   --> A'             
     e( 31 - 31) =     41.30195  eV     1   --> A''            
     e( 32 - 32) =     41.49943  eV     1   --> A'             

 **************************************************************************

 **************************************************************************

                    xk=(  -0.73750,   0.73750,   0.02500  )

     Band symmetry, C_s (m)     point group:

     e(  1 -  1) =     -2.09083  eV     1   --> A'             
     e(  2 -  2) =     -0.93380  eV     1   --> A'             
     e(  3 -  3) =      1.82306  eV     1   --> A'             
     e(  4 -  4) =      3.86686  eV     1   --> A''            
     e(  5 -  5) =      7.45014  eV     1   --> A'             
     e(  6 -  6) =     10.64372  eV     1   --> A'             
     e(  7 -  7) =     13.63094  eV     1   --> A''            
     e(  8 -  8) =     14.03316  eV     1   --> A'             
     e(  9 -  9) =     14.59051  eV     1   --> A'             
     e( 10 - 10) =     14.75133  eV     1   --> A''            
     e( 11 - 11) =     21.02651  eV     1   --> A'             
     e( 12 - 12) =     21.32409  eV     1   --> A''            
     e( 13 - 13) =     21.63764  eV     1   --> A'             
     e( 14 - 14) =     22.19551  eV     1   --> A''            
     e( 15 - 15) =     22.36827  eV     1   --> A'             
     e( 16 - 16) =     23.60316  eV     1   --> A'             
     e( 17 - 17) =     25.64079  eV     1   --> A'             
     e( 18 - 18) =     26.26989  eV     1   --> A'             
     e( 19 - 19) =     27.83328  eV     1   --> A''            
     e( 20 - 20) =     28.47956  eV     1   --> A''            
     e( 21 - 21) =     29.15845  eV     1   --> A'             
     e( 22 - 22) =     29.42989  eV     1   --> A'             
     e( 23 - 23) =     31.73050  eV     1   --> A'             
     e( 24 - 24) =     32.73111  eV     1   --> A'             
     e( 25 - 25) =     35.15011  eV     1   --> A''            
     e( 26 - 26) =     35.57972  eV     1   --> A'             
     e( 27 - 27) =     35.70102  eV     1   --> A''            
     e( 28 - 28) =     37.27915  eV     1   --> A'             
     e( 29 - 29) =     41.04115  eV     1   --> A''            
     e( 30 - 30) =     41.27325  eV     1   --> A''            
     e( 31 - 31) =     41.33129  eV     1   --> A'             
     e( 32 - 32) =     41.50223  eV     1   --> A'             

 **************************************************************************

 **************************************************************************

                    xk=(  -0.74167,   0.74167,   0.01667  )

     Band symmetry, C_s (m)     point group:

     e(  1 -  1) =     -2.06152  eV     1   --> A'             
     e(  2 -  2) =     -0.96160  eV     1   --> A'             
     e(  3 -  3) =      1.83044  eV     1   --> A'             
     e(  4 -  4) =      3.85095  eV     1   --> A''            
     e(  5 -  5) =      7.43105  eV     1   --> A'             
     e(  6 -  6) =     10.55673  eV     1   --> A'             
     e(  7 -  7) =     13.70742  eV     1   --> A''            
     e(  8 -  8) =     14.14815  eV     1   --> A'             
     e(  9 -  9) =     14.56935  eV     1   --> A'             
     e( 10 - 10) =     14.76867  eV     1   --> A''            
     e( 11 - 11) =     21.03131  eV     1   --> A'             
     e( 12 - 12) =     21.34805  eV     1   --> A''            
     e( 13 - 13) =     21.78479  eV     1   --> A'             
     e( 14 - 14) =     22.07126  eV     1   --> A''            
     e( 15 - 15) =     22.29106  eV     1   --> A'             
     e( 16 - 16) =     23.52465  eV     1   --> A'             
     e( 17 - 17) =     25.76017  eV     1   --> A'             
     e( 18 - 18) =     26.26116  eV     1   --> A'             
     e( 19 - 19) =     27.88200  eV     1   --> A''            
     e( 20 - 20) =     28.31504  eV     1   --> A''            
     e( 21 - 21) =     29.20231  eV     1   --> A'             
     e( 22 - 22) =     29.35722  eV     1   --> A'             
     e( 23 - 23) =     31.72021  eV     1   --> A'             
     e( 24 - 24) =     32.58151  eV     1   --> A'             
     e( 25 - 25) =     35.27528  eV     1   --> A''            
     e( 26 - 26) =     35.63272  eV     1   --> A'             
     e( 27 - 27) =     35.70455  eV     1   --> A''            
     e( 28 - 28) =     37.34274  eV     1   --> A'             
     e( 29 - 29) =     41.05343  eV     1   --> A''            
     e( 30 - 30) =     41.25702  eV     1   --> A''            
     e( 31 - 31) =     41.38574  eV     1   --> A'             
     e( 32 - 32) =     41.51284  eV     1   --> A'             

 **************************************************************************

 **************************************************************************

                    xk=(  -0.74583,   0.74583,   0.00833  )

     Band symmetry, C_s (m)     point group:

     e(  1 -  1) =     -2.03572  eV     1   --> A'             
     e(  2 -  2) =     -0.98698  eV     1   --> A'             
     e(  3 -  3) =      1.84106  eV     1   --> A'             
     e(  4 -  4) =      3.83573  eV     1   --> A''            
     e(  5 -  5) =      7.41295  eV     1   --> A'             
     e(  6 -  6) =     10.47060  eV     1   --> A'             
     e(  7 -  7) =     13.77502  eV     1   --> A''            
     e(  8 -  8) =     14.25179  eV     1   --> A'             
     e(  9 -  9) =     14.55994  eV     1   --> A'             
     e( 10 - 10) =     14.79650  eV     1   --> A''            
     e( 11 - 11) =     21.02246  eV     1   --> A'             
     e( 12 - 12) =     21.35278  eV     1   --> A''            
     e( 13 - 13) =     21.93314  eV     1   --> A'             
     e( 14 - 14) =     21.96560  eV     1   --> A''            
     e( 15 - 15) =     22.22028  eV     1   --> A'             
     e( 16 - 16) =     23.45136  eV     1   --> A'             
     e( 17 - 17) =     25.87483  eV     1   --> A'             
     e( 18 - 18) =     26.25135  eV     1   --> A'             
     e( 19 - 19) =     27.93367  eV     1   --> A''            
     e( 20 - 20) =     28.15131  eV     1   --> A''            
     e( 21 - 21) =     29.21647  eV     1   --> A'             
     e( 22 - 22) =     29.32261  eV     1   --> A'             
     e( 23 - 23) =     31.68812  eV     1   --> A'             
     e( 24 - 24) =     32.45760  eV     1   --> A'             
     e( 25 - 25) =     35.40165  eV     1   --> A''            
     e( 26 - 26) =     35.68383  eV     1   --> A'             
     e( 27 - 27) =     35.70750  eV     1   --> A''            
     e( 28 - 28) =     37.40444  eV     1   --> A'             
     e( 29 - 29) =     41.05243  eV     1   --> A''            
     e( 30 - 30) =     41.25680  eV     1   --> A''            
     e( 31 - 31) =     41.41630  eV     1   --> A'             
     e( 32 - 32) =     41.52278  eV     1   --> A'             

 **************************************************************************

 **************************************************************************

                    xk=(  -0.75000,   0.75000,   0.00000  )

     point group C_2v (mm2) 
     there are  4 classes
     the character table:

       E     C2    s_v   s_v' 
A_1    1.00  1.00  1.00  1.00
A_2    1.00  1.00 -1.00 -1.00
B_1    1.00 -1.00  1.00 -1.00
B_2    1.00 -1.00 -1.00  1.00

     the symmetry operations in each class and the name of the first element:

     E        1
                                                                 
     C2       2
                                                                 
     s_v      4
                                                                 
     s_v'     3
                                                                 

     Band symmetry, C_2v (mm2)  point group:

     e(  1 -  1) =     -2.01431  eV     1   --> A_1  D_1  S_1  
     e(  2 -  2) =     -1.00892  eV     1   --> B_1  D_3  S_3  
     e(  3 -  3) =      1.85475  eV     1   --> A_1  D_1  S_1  
     e(  4 -  4) =      3.82121  eV     1   --> A_2  D_2  S_2  
     e(  5 -  5) =      7.39585  eV     1   --> B_1  D_3  S_3  
     e(  6 -  6) =     10.38539  eV     1   --> A_1  D_1  S_1  
     e(  7 -  7) =     13.83246  eV     1   --> B_2  D_4  S_4  
     e(  8 -  8) =     14.32701  eV     1   --> A_1  D_1  S_1  
     e(  9 -  9) =     14.57930  eV     1   --> B_1  D_3  S_3  
     e( 10 - 10) =     14.83608  eV     1   --> A_2  D_2  S_2  
     e( 11 - 11) =     21.00286  eV     1   --> B_1  D_3  S_3  
     e( 12 - 12) =     21.32794  eV     1   --> A_2  D_2  S_2  
     e( 13 - 13) =     21.88892  eV     1   --> B_2  D_4  S_4  
     e( 14 - 14) =     22.04165  eV     1   --> B_1  D_3  S_3  
     e( 15 - 15) =     22.19318  eV     1   --> A_1  D_1  S_1  
     e( 16 - 16) =     23.38419  eV     1   --> A_1  D_1  S_1  
     e( 17 - 17) =     25.98168  eV     1   --> B_1  D_3  S_3  
     e( 18 - 18) =     26.24269  eV     1   --> A_1  D_1  S_1  
     e( 19 - 19) =     27.98726  eV     1   --> B_2  D_4  S_4  
     e( 20 - 20) =     27.98939  eV     1   --> A_2  D_2  S_2  
     e( 21 - 21) =     29.17957  eV     1   --> B_1  D_3  S_3  
     e( 22 - 22) =     29.34786  eV     1   --> A_1  D_1  S_1  
     e( 23 - 23) =     31.62600  eV     1   --> B_1  D_3  S_3  
     e( 24 - 24) =     32.36810  eV     1   --> A_1  D_1  S_1  
     e( 25 - 25) =     35.52916  eV     1   --> A_2  D_2  S_2  
     e( 26 - 26) =     35.70980  eV     1   --> B_2  D_4  S_4  
     e( 27 - 27) =     35.73283  eV     1   --> A_1  D_1  S_1  
     e( 28 - 28) =     37.46400  eV     1   --> B_1  D_3  S_3  
     e( 29 - 29) =     41.03943  eV     1   --> A_2  D_2  S_2  
     e( 30 - 30) =     41.27134  eV     1   --> B_2  D_4  S_4  
     e( 31 - 31) =     41.43382  eV     1   --> B_1  D_3  S_3  
     e( 32 - 32) =     41.51647  eV     1   --> B_1  D_3  S_3  

 **************************************************************************
 
     BANDS        :     20.34s CPU     25.29s WALL

 
   This run was terminated on:  16:12:25  31May2023            

=------------------------------------------------------------------------------=
   JOB DONE.
=------------------------------------------------------------------------------=
