
     Program PWSCF v.7.1 starts on 31May2023 at 16:11: 3 

     This program is part of the open-source Quantum ESPRESSO suite
     for quantum simulation of materials; please cite
         "P. Giannozzi et al., J. Phys.:Condens. Matter 21 395502 (2009);
         "P. Giannozzi et al., J. Phys.:Condens. Matter 29 465901 (2017);
         "P. Giannozzi et al., J. Chem. Phys. 152 154105 (2020);
          URL http://www.quantum-espresso.org", 
     in publications or presentations arising from this work. More details at
     http://www.quantum-espresso.org/quote

     Parallel version (MPI), running on    20 processors

     MPI processes distributed on     1 nodes
     60792 MiB available memory on the printing compute node when the environment starts
 
     Waiting for input...
     Reading input from standard input

     Current dimensions of program PWSCF are:
     Max number of different atomic species (ntypx) = 10
     Max number of k-points (npk) =  40000
     Max angular momentum in pseudopotentials (lmaxx) =  4

     Atomic positions and unit cell read from directory:
     ./work/Si.save/
     Atomic positions from file used, from input discarded
 
 
     R & G space division:  proc/nbgrp/npool/nimage =      20
     Subspace diagonalization in iterative solution of the eigenvalue problem:
     a serial algorithm will be used

 
     Parallelization info
     --------------------
     sticks:   dense  smooth     PW     G-vecs:    dense   smooth      PW
     Min          57      57     16                 1275     1275     196
     Max          58      58     19                 1277     1277     198
     Sum        1147    1147    337                25509    25509    3943
 
     Using Slab Decomposition
 


     bravais-lattice index     =            2
     lattice parameter (alat)  =      10.1696  a.u.
     unit-cell volume          =     262.9383 (a.u.)^3
     number of atoms/cell      =            2
     number of atomic types    =            1
     number of electrons       =         8.00
     number of Kohn-Sham states=           32
     kinetic-energy cutoff     =      80.0000  Ry
     charge density cutoff     =     320.0000  Ry
     Exchange-correlation= SLA-PZ-NOGX-NOGC
                           (   1   1   0   0   0   0   0)

     celldm(1)=  10.169617  celldm(2)=   0.000000  celldm(3)=   0.000000
     celldm(4)=   0.000000  celldm(5)=   0.000000  celldm(6)=   0.000000

     crystal axes: (cart. coord. in units of alat)
               a(1) = (  -0.500000   0.000000   0.500000 )  
               a(2) = (   0.000000   0.500000   0.500000 )  
               a(3) = (  -0.500000   0.500000   0.000000 )  

     reciprocal axes: (cart. coord. in units 2 pi/alat)
               b(1) = ( -1.000000 -1.000000  1.000000 )  
               b(2) = (  1.000000  1.000000  1.000000 )  
               b(3) = ( -1.000000  1.000000 -1.000000 )  


     PseudoPot. # 1 for Si read from file:
     ../pseudo/Si.pz-hgh.UPF
     MD5 check sum: cb84f9316d534d44e00c22e249e735ab
     Pseudo is Norm-conserving, Zval =  4.0
     Generated in analytical, separable form
     Using radial grid of 1141 points,  3 beta functions with: 
                l(1) =   0
                l(2) =   0
                l(3) =   1

     atomic species   valence    mass     pseudopotential
        Si             4.00    28.08550     Si( 1.00)

     48 Sym. Ops., with inversion, found (24 have fractional translation)


                                    s                        frac. trans.

      isym =  1     identity                                     

 cryst.   s( 1) = (     1          0          0      )
                  (     0          1          0      )
                  (     0          0          1      )

 cart.    s( 1) = (  1.0000000  0.0000000  0.0000000 )
                  (  0.0000000  1.0000000  0.0000000 )
                  (  0.0000000  0.0000000  1.0000000 )


      isym =  2     180 deg rotation - cart. axis [0,0,1]        

 cryst.   s( 2) = (     0          1         -1      )
                  (     1          0         -1      )
                  (     0          0         -1      )

 cart.    s( 2) = ( -1.0000000  0.0000000  0.0000000 )
                  (  0.0000000 -1.0000000  0.0000000 )
                  (  0.0000000  0.0000000  1.0000000 )


      isym =  3     180 deg rotation - cart. axis [0,1,0]        

 cryst.   s( 3) = (    -1          0          0      )
                  (    -1          0          1      )
                  (    -1          1          0      )

 cart.    s( 3) = ( -1.0000000  0.0000000  0.0000000 )
                  (  0.0000000  1.0000000  0.0000000 )
                  (  0.0000000  0.0000000 -1.0000000 )


      isym =  4     180 deg rotation - cart. axis [1,0,0]        

 cryst.   s( 4) = (     0         -1          1      )
                  (     0         -1          0      )
                  (     1         -1          0      )

 cart.    s( 4) = (  1.0000000  0.0000000  0.0000000 )
                  (  0.0000000 -1.0000000  0.0000000 )
                  (  0.0000000  0.0000000 -1.0000000 )


      isym =  5     180 deg rotation - cart. axis [1,1,0]        

 cryst.   s( 5) = (     0         -1          0      )    f =(  0.2500000 )
                  (    -1          0          0      )       (  0.2500000 )
                  (     0          0         -1      )       (  0.2500000 )

 cart.    s( 5) = (  0.0000000  1.0000000  0.0000000 )    f =( -0.2500000 )
                  (  1.0000000  0.0000000  0.0000000 )       (  0.2500000 )
                  (  0.0000000  0.0000000 -1.0000000 )       (  0.2500000 )


      isym =  6     180 deg rotation - cart. axis [1,-1,0]       

 cryst.   s( 6) = (    -1          0          1      )    f =(  0.2500000 )
                  (     0         -1          1      )       (  0.2500000 )
                  (     0          0          1      )       (  0.2500000 )

 cart.    s( 6) = (  0.0000000 -1.0000000  0.0000000 )    f =( -0.2500000 )
                  ( -1.0000000  0.0000000  0.0000000 )       (  0.2500000 )
                  (  0.0000000  0.0000000 -1.0000000 )       (  0.2500000 )


      isym =  7      90 deg rotation - cart. axis [0,0,-1]       

 cryst.   s( 7) = (     0          1          0      )    f =(  0.2500000 )
                  (     0          1         -1      )       (  0.2500000 )
                  (    -1          1          0      )       (  0.2500000 )

 cart.    s( 7) = (  0.0000000  1.0000000  0.0000000 )    f =( -0.2500000 )
                  ( -1.0000000  0.0000000  0.0000000 )       (  0.2500000 )
                  (  0.0000000  0.0000000  1.0000000 )       (  0.2500000 )


      isym =  8      90 deg rotation - cart. axis [0,0,1]        

 cryst.   s( 8) = (     1          0         -1      )    f =(  0.2500000 )
                  (     1          0          0      )       (  0.2500000 )
                  (     1         -1          0      )       (  0.2500000 )

 cart.    s( 8) = (  0.0000000 -1.0000000  0.0000000 )    f =( -0.2500000 )
                  (  1.0000000  0.0000000  0.0000000 )       (  0.2500000 )
                  (  0.0000000  0.0000000  1.0000000 )       (  0.2500000 )


      isym =  9     180 deg rotation - cart. axis [1,0,1]        

 cryst.   s( 9) = (    -1          0          0      )    f =(  0.2500000 )
                  (     0          0         -1      )       (  0.2500000 )
                  (     0         -1          0      )       (  0.2500000 )

 cart.    s( 9) = (  0.0000000  0.0000000  1.0000000 )    f =( -0.2500000 )
                  (  0.0000000 -1.0000000  0.0000000 )       (  0.2500000 )
                  (  1.0000000  0.0000000  0.0000000 )       (  0.2500000 )


      isym = 10     180 deg rotation - cart. axis [-1,0,1]       

 cryst.   s(10) = (     1          0          0      )    f =(  0.2500000 )
                  (     1         -1          0      )       (  0.2500000 )
                  (     1          0         -1      )       (  0.2500000 )

 cart.    s(10) = (  0.0000000  0.0000000 -1.0000000 )    f =( -0.2500000 )
                  (  0.0000000 -1.0000000  0.0000000 )       (  0.2500000 )
                  ( -1.0000000  0.0000000  0.0000000 )       (  0.2500000 )


      isym = 11      90 deg rotation - cart. axis [0,1,0]        

 cryst.   s(11) = (     0          1         -1      )    f =(  0.2500000 )
                  (    -1          1          0      )       (  0.2500000 )
                  (     0          1          0      )       (  0.2500000 )

 cart.    s(11) = (  0.0000000  0.0000000  1.0000000 )    f =( -0.2500000 )
                  (  0.0000000  1.0000000  0.0000000 )       (  0.2500000 )
                  ( -1.0000000  0.0000000  0.0000000 )       (  0.2500000 )


      isym = 12      90 deg rotation - cart. axis [0,-1,0]       

 cryst.   s(12) = (     0         -1          1      )    f =(  0.2500000 )
                  (     0          0          1      )       (  0.2500000 )
                  (    -1          0          1      )       (  0.2500000 )

 cart.    s(12) = (  0.0000000  0.0000000 -1.0000000 )    f =( -0.2500000 )
                  (  0.0000000  1.0000000  0.0000000 )       (  0.2500000 )
                  (  1.0000000  0.0000000  0.0000000 )       (  0.2500000 )


      isym = 13     180 deg rotation - cart. axis [0,1,1]        

 cryst.   s(13) = (    -1          1          0      )    f =(  0.2500000 )
                  (     0          1          0      )       (  0.2500000 )
                  (     0          1         -1      )       (  0.2500000 )

 cart.    s(13) = ( -1.0000000  0.0000000  0.0000000 )    f =( -0.2500000 )
                  (  0.0000000  0.0000000  1.0000000 )       (  0.2500000 )
                  (  0.0000000  1.0000000  0.0000000 )       (  0.2500000 )


      isym = 14     180 deg rotation - cart. axis [0,1,-1]       

 cryst.   s(14) = (     0          0         -1      )    f =(  0.2500000 )
                  (     0         -1          0      )       (  0.2500000 )
                  (    -1          0          0      )       (  0.2500000 )

 cart.    s(14) = ( -1.0000000  0.0000000  0.0000000 )    f =( -0.2500000 )
                  (  0.0000000  0.0000000 -1.0000000 )       (  0.2500000 )
                  (  0.0000000 -1.0000000  0.0000000 )       (  0.2500000 )


      isym = 15      90 deg rotation - cart. axis [-1,0,0]       

 cryst.   s(15) = (     0          0          1      )    f =(  0.2500000 )
                  (    -1          0          1      )       (  0.2500000 )
                  (     0         -1          1      )       (  0.2500000 )

 cart.    s(15) = (  1.0000000  0.0000000  0.0000000 )    f =( -0.2500000 )
                  (  0.0000000  0.0000000  1.0000000 )       (  0.2500000 )
                  (  0.0000000 -1.0000000  0.0000000 )       (  0.2500000 )


      isym = 16      90 deg rotation - cart. axis [1,0,0]        

 cryst.   s(16) = (     1         -1          0      )    f =(  0.2500000 )
                  (     1          0         -1      )       (  0.2500000 )
                  (     1          0          0      )       (  0.2500000 )

 cart.    s(16) = (  1.0000000  0.0000000  0.0000000 )    f =( -0.2500000 )
                  (  0.0000000  0.0000000 -1.0000000 )       (  0.2500000 )
                  (  0.0000000  1.0000000  0.0000000 )       (  0.2500000 )


      isym = 17     120 deg rotation - cart. axis [-1,-1,-1]     

 cryst.   s(17) = (    -1          0          1      )
                  (    -1          1          0      )
                  (    -1          0          0      )

 cart.    s(17) = (  0.0000000  1.0000000  0.0000000 )
                  (  0.0000000  0.0000000  1.0000000 )
                  (  1.0000000  0.0000000  0.0000000 )


      isym = 18     120 deg rotation - cart. axis [-1,1,1]       

 cryst.   s(18) = (     0          1          0      )
                  (     0          0          1      )
                  (     1          0          0      )

 cart.    s(18) = (  0.0000000 -1.0000000  0.0000000 )
                  (  0.0000000  0.0000000  1.0000000 )
                  ( -1.0000000  0.0000000  0.0000000 )


      isym = 19     120 deg rotation - cart. axis [1,1,-1]       

 cryst.   s(19) = (     1          0         -1      )
                  (     0          0         -1      )
                  (     0          1         -1      )

 cart.    s(19) = (  0.0000000  1.0000000  0.0000000 )
                  (  0.0000000  0.0000000 -1.0000000 )
                  ( -1.0000000  0.0000000  0.0000000 )


      isym = 20     120 deg rotation - cart. axis [1,-1,1]       

 cryst.   s(20) = (     0         -1          0      )
                  (     1         -1          0      )
                  (     0         -1          1      )

 cart.    s(20) = (  0.0000000 -1.0000000  0.0000000 )
                  (  0.0000000  0.0000000 -1.0000000 )
                  (  1.0000000  0.0000000  0.0000000 )


      isym = 21     120 deg rotation - cart. axis [1,1,1]        

 cryst.   s(21) = (     0          0         -1      )
                  (     0          1         -1      )
                  (     1          0         -1      )

 cart.    s(21) = (  0.0000000  0.0000000  1.0000000 )
                  (  1.0000000  0.0000000  0.0000000 )
                  (  0.0000000  1.0000000  0.0000000 )


      isym = 22     120 deg rotation - cart. axis [-1,1,-1]      

 cryst.   s(22) = (    -1          1          0      )
                  (    -1          0          0      )
                  (    -1          0          1      )

 cart.    s(22) = (  0.0000000  0.0000000  1.0000000 )
                  ( -1.0000000  0.0000000  0.0000000 )
                  (  0.0000000 -1.0000000  0.0000000 )


      isym = 23     120 deg rotation - cart. axis [1,-1,-1]      

 cryst.   s(23) = (     0          0          1      )
                  (     1          0          0      )
                  (     0          1          0      )

 cart.    s(23) = (  0.0000000  0.0000000 -1.0000000 )
                  ( -1.0000000  0.0000000  0.0000000 )
                  (  0.0000000  1.0000000  0.0000000 )


      isym = 24     120 deg rotation - cart. axis [-1,-1,1]      

 cryst.   s(24) = (     1         -1          0      )
                  (     0         -1          1      )
                  (     0         -1          0      )

 cart.    s(24) = (  0.0000000  0.0000000 -1.0000000 )
                  (  1.0000000  0.0000000  0.0000000 )
                  (  0.0000000 -1.0000000  0.0000000 )


      isym = 25     inversion                                    

 cryst.   s(25) = (    -1          0          0      )    f =(  0.2500000 )
                  (     0         -1          0      )       (  0.2500000 )
                  (     0          0         -1      )       (  0.2500000 )

 cart.    s(25) = ( -1.0000000  0.0000000  0.0000000 )    f =( -0.2500000 )
                  (  0.0000000 -1.0000000  0.0000000 )       (  0.2500000 )
                  (  0.0000000  0.0000000 -1.0000000 )       (  0.2500000 )


      isym = 26     inv. 180 deg rotation - cart. axis [0,0,1]   

 cryst.   s(26) = (     0         -1          1      )    f =(  0.2500000 )
                  (    -1          0          1      )       (  0.2500000 )
                  (     0          0          1      )       (  0.2500000 )

 cart.    s(26) = (  1.0000000  0.0000000  0.0000000 )    f =( -0.2500000 )
                  (  0.0000000  1.0000000  0.0000000 )       (  0.2500000 )
                  (  0.0000000  0.0000000 -1.0000000 )       (  0.2500000 )


      isym = 27     inv. 180 deg rotation - cart. axis [0,1,0]   

 cryst.   s(27) = (     1          0          0      )    f =(  0.2500000 )
                  (     1          0         -1      )       (  0.2500000 )
                  (     1         -1          0      )       (  0.2500000 )

 cart.    s(27) = (  1.0000000  0.0000000  0.0000000 )    f =( -0.2500000 )
                  (  0.0000000 -1.0000000  0.0000000 )       (  0.2500000 )
                  (  0.0000000  0.0000000  1.0000000 )       (  0.2500000 )


      isym = 28     inv. 180 deg rotation - cart. axis [1,0,0]   

 cryst.   s(28) = (     0          1         -1      )    f =(  0.2500000 )
                  (     0          1          0      )       (  0.2500000 )
                  (    -1          1          0      )       (  0.2500000 )

 cart.    s(28) = ( -1.0000000  0.0000000  0.0000000 )    f =( -0.2500000 )
                  (  0.0000000  1.0000000  0.0000000 )       (  0.2500000 )
                  (  0.0000000  0.0000000  1.0000000 )       (  0.2500000 )


      isym = 29     inv. 180 deg rotation - cart. axis [1,1,0]   

 cryst.   s(29) = (     0          1          0      )
                  (     1          0          0      )
                  (     0          0          1      )

 cart.    s(29) = (  0.0000000 -1.0000000  0.0000000 )
                  ( -1.0000000  0.0000000  0.0000000 )
                  (  0.0000000  0.0000000  1.0000000 )


      isym = 30     inv. 180 deg rotation - cart. axis [1,-1,0]  

 cryst.   s(30) = (     1          0         -1      )
                  (     0          1         -1      )
                  (     0          0         -1      )

 cart.    s(30) = (  0.0000000  1.0000000  0.0000000 )
                  (  1.0000000  0.0000000  0.0000000 )
                  (  0.0000000  0.0000000  1.0000000 )


      isym = 31     inv.  90 deg rotation - cart. axis [0,0,-1]  

 cryst.   s(31) = (     0         -1          0      )
                  (     0         -1          1      )
                  (     1         -1          0      )

 cart.    s(31) = (  0.0000000 -1.0000000  0.0000000 )
                  (  1.0000000  0.0000000  0.0000000 )
                  (  0.0000000  0.0000000 -1.0000000 )


      isym = 32     inv.  90 deg rotation - cart. axis [0,0,1]   

 cryst.   s(32) = (    -1          0          1      )
                  (    -1          0          0      )
                  (    -1          1          0      )

 cart.    s(32) = (  0.0000000  1.0000000  0.0000000 )
                  ( -1.0000000  0.0000000  0.0000000 )
                  (  0.0000000  0.0000000 -1.0000000 )


      isym = 33     inv. 180 deg rotation - cart. axis [1,0,1]   

 cryst.   s(33) = (     1          0          0      )
                  (     0          0          1      )
                  (     0          1          0      )

 cart.    s(33) = (  0.0000000  0.0000000 -1.0000000 )
                  (  0.0000000  1.0000000  0.0000000 )
                  ( -1.0000000  0.0000000  0.0000000 )


      isym = 34     inv. 180 deg rotation - cart. axis [-1,0,1]  

 cryst.   s(34) = (    -1          0          0      )
                  (    -1          1          0      )
                  (    -1          0          1      )

 cart.    s(34) = (  0.0000000  0.0000000  1.0000000 )
                  (  0.0000000  1.0000000  0.0000000 )
                  (  1.0000000  0.0000000  0.0000000 )


      isym = 35     inv.  90 deg rotation - cart. axis [0,1,0]   

 cryst.   s(35) = (     0         -1          1      )
                  (     1         -1          0      )
                  (     0         -1          0      )

 cart.    s(35) = (  0.0000000  0.0000000 -1.0000000 )
                  (  0.0000000 -1.0000000  0.0000000 )
                  (  1.0000000  0.0000000  0.0000000 )


      isym = 36     inv.  90 deg rotation - cart. axis [0,-1,0]  

 cryst.   s(36) = (     0          1         -1      )
                  (     0          0         -1      )
                  (     1          0         -1      )

 cart.    s(36) = (  0.0000000  0.0000000  1.0000000 )
                  (  0.0000000 -1.0000000  0.0000000 )
                  ( -1.0000000  0.0000000  0.0000000 )


      isym = 37     inv. 180 deg rotation - cart. axis [0,1,1]   

 cryst.   s(37) = (     1         -1          0      )
                  (     0         -1          0      )
                  (     0         -1          1      )

 cart.    s(37) = (  1.0000000  0.0000000  0.0000000 )
                  (  0.0000000  0.0000000 -1.0000000 )
                  (  0.0000000 -1.0000000  0.0000000 )


      isym = 38     inv. 180 deg rotation - cart. axis [0,1,-1]  

 cryst.   s(38) = (     0          0          1      )
                  (     0          1          0      )
                  (     1          0          0      )

 cart.    s(38) = (  1.0000000  0.0000000  0.0000000 )
                  (  0.0000000  0.0000000  1.0000000 )
                  (  0.0000000  1.0000000  0.0000000 )


      isym = 39     inv.  90 deg rotation - cart. axis [-1,0,0]  

 cryst.   s(39) = (     0          0         -1      )
                  (     1          0         -1      )
                  (     0          1         -1      )

 cart.    s(39) = ( -1.0000000  0.0000000  0.0000000 )
                  (  0.0000000  0.0000000 -1.0000000 )
                  (  0.0000000  1.0000000  0.0000000 )


      isym = 40     inv.  90 deg rotation - cart. axis [1,0,0]   

 cryst.   s(40) = (    -1          1          0      )
                  (    -1          0          1      )
                  (    -1          0          0      )

 cart.    s(40) = ( -1.0000000  0.0000000  0.0000000 )
                  (  0.0000000  0.0000000  1.0000000 )
                  (  0.0000000 -1.0000000  0.0000000 )


      isym = 41     inv. 120 deg rotation - cart. axis [-1,-1,-1]

 cryst.   s(41) = (     1          0         -1      )    f =(  0.2500000 )
                  (     1         -1          0      )       (  0.2500000 )
                  (     1          0          0      )       (  0.2500000 )

 cart.    s(41) = (  0.0000000 -1.0000000  0.0000000 )    f =( -0.2500000 )
                  (  0.0000000  0.0000000 -1.0000000 )       (  0.2500000 )
                  ( -1.0000000  0.0000000  0.0000000 )       (  0.2500000 )


      isym = 42     inv. 120 deg rotation - cart. axis [-1,1,1]  

 cryst.   s(42) = (     0         -1          0      )    f =(  0.2500000 )
                  (     0          0         -1      )       (  0.2500000 )
                  (    -1          0          0      )       (  0.2500000 )

 cart.    s(42) = (  0.0000000  1.0000000  0.0000000 )    f =( -0.2500000 )
                  (  0.0000000  0.0000000 -1.0000000 )       (  0.2500000 )
                  (  1.0000000  0.0000000  0.0000000 )       (  0.2500000 )


      isym = 43     inv. 120 deg rotation - cart. axis [1,1,-1]  

 cryst.   s(43) = (    -1          0          1      )    f =(  0.2500000 )
                  (     0          0          1      )       (  0.2500000 )
                  (     0         -1          1      )       (  0.2500000 )

 cart.    s(43) = (  0.0000000 -1.0000000  0.0000000 )    f =( -0.2500000 )
                  (  0.0000000  0.0000000  1.0000000 )       (  0.2500000 )
                  (  1.0000000  0.0000000  0.0000000 )       (  0.2500000 )


      isym = 44     inv. 120 deg rotation - cart. axis [1,-1,1]  

 cryst.   s(44) = (     0          1          0      )    f =(  0.2500000 )
                  (    -1          1          0      )       (  0.2500000 )
                  (     0          1         -1      )       (  0.2500000 )

 cart.    s(44) = (  0.0000000  1.0000000  0.0000000 )    f =( -0.2500000 )
                  (  0.0000000  0.0000000  1.0000000 )       (  0.2500000 )
                  ( -1.0000000  0.0000000  0.0000000 )       (  0.2500000 )


      isym = 45     inv. 120 deg rotation - cart. axis [1,1,1]   

 cryst.   s(45) = (     0          0          1      )    f =(  0.2500000 )
                  (     0         -1          1      )       (  0.2500000 )
                  (    -1          0          1      )       (  0.2500000 )

 cart.    s(45) = (  0.0000000  0.0000000 -1.0000000 )    f =( -0.2500000 )
                  ( -1.0000000  0.0000000  0.0000000 )       (  0.2500000 )
                  (  0.0000000 -1.0000000  0.0000000 )       (  0.2500000 )


      isym = 46     inv. 120 deg rotation - cart. axis [-1,1,-1] 

 cryst.   s(46) = (     1         -1          0      )    f =(  0.2500000 )
                  (     1          0          0      )       (  0.2500000 )
                  (     1          0         -1      )       (  0.2500000 )

 cart.    s(46) = (  0.0000000  0.0000000 -1.0000000 )    f =( -0.2500000 )
                  (  1.0000000  0.0000000  0.0000000 )       (  0.2500000 )
                  (  0.0000000  1.0000000  0.0000000 )       (  0.2500000 )


      isym = 47     inv. 120 deg rotation - cart. axis [1,-1,-1] 

 cryst.   s(47) = (     0          0         -1      )    f =(  0.2500000 )
                  (    -1          0          0      )       (  0.2500000 )
                  (     0         -1          0      )       (  0.2500000 )

 cart.    s(47) = (  0.0000000  0.0000000  1.0000000 )    f =( -0.2500000 )
                  (  1.0000000  0.0000000  0.0000000 )       (  0.2500000 )
                  (  0.0000000 -1.0000000  0.0000000 )       (  0.2500000 )


      isym = 48     inv. 120 deg rotation - cart. axis [-1,-1,1] 

 cryst.   s(48) = (    -1          1          0      )    f =(  0.2500000 )
                  (     0          1         -1      )       (  0.2500000 )
                  (     0          1          0      )       (  0.2500000 )

 cart.    s(48) = (  0.0000000  0.0000000  1.0000000 )    f =( -0.2500000 )
                  ( -1.0000000  0.0000000  0.0000000 )       (  0.2500000 )
                  (  0.0000000  1.0000000  0.0000000 )       (  0.2500000 )


     point group O_h (m-3m) 
     there are 10 classes
     the character table:

       E     8C3   3C2   6C4   6C2'  i     8S6   3s_h  6S4   6s_d 
A_1g   1.00  1.00  1.00  1.00  1.00  1.00  1.00  1.00  1.00  1.00
A_2g   1.00  1.00  1.00 -1.00 -1.00  1.00  1.00  1.00 -1.00 -1.00
E_g    2.00 -1.00  2.00  0.00  0.00  2.00 -1.00  2.00  0.00  0.00
T_1g   3.00  0.00 -1.00  1.00 -1.00  3.00  0.00 -1.00  1.00 -1.00
T_2g   3.00  0.00 -1.00 -1.00  1.00  3.00  0.00 -1.00 -1.00  1.00
A_1u   1.00  1.00  1.00  1.00  1.00 -1.00 -1.00 -1.00 -1.00 -1.00
A_2u   1.00  1.00  1.00 -1.00 -1.00 -1.00 -1.00 -1.00  1.00  1.00
E_u    2.00 -1.00  2.00  0.00  0.00 -2.00  1.00 -2.00  0.00  0.00
T_1u   3.00  0.00 -1.00  1.00 -1.00 -3.00  0.00  1.00 -1.00  1.00
T_2u   3.00  0.00 -1.00 -1.00  1.00 -3.00  0.00  1.00  1.00 -1.00

     the symmetry operations in each class and the name of the first element:

     E        1
          identity                                               
     8C3     17   19   20   18   24   21   22   23
          120 deg rotation - cart. axis [-1,-1,-1]               
     3C2      2    4    3
          180 deg rotation - cart. axis [0,0,1]                  
     6C4      7    8   15   16   12   11
           90 deg rotation - cart. axis [0,0,-1]                 
     6C2'     5    6   14   13   10    9
          180 deg rotation - cart. axis [1,1,0]                  
     i       25
          inversion                                              
     8S6     41   43   44   42   48   45   46   47
          inv. 120 deg rotation - cart. axis [-1,-1,-1]          
     3s_h    26   28   27
          inv. 180 deg rotation - cart. axis [0,0,1]             
     6S4     31   32   39   40   36   35
          inv.  90 deg rotation - cart. axis [0,0,-1]            
     6s_d    29   30   38   37   34   33
          inv. 180 deg rotation - cart. axis [1,1,0]             

   Cartesian axes

     site n.     atom                  positions (alat units)
         1           Si  tau(   1) = (   0.0000000   0.0000000   0.0000000  )
         2           Si  tau(   2) = (  -0.7500000   0.7500000   0.7500000  )

   Crystallographic axes

     site n.     atom                  positions (cryst. coord.)
         1           Si  tau(   1) = (  0.0000000  0.0000000  0.0000000  )
         2           Si  tau(   2) = (  0.7500000  0.7500000  0.7500000  )

     number of k points=   491
                       cart. coord. in units 2pi/alat
        k(    1) = (   0.0000000   0.0000000   0.0000000), wk =   0.0040733
        k(    2) = (  -0.0166667   0.0000000   0.0000000), wk =   0.0040733
        k(    3) = (  -0.0333333   0.0000000   0.0000000), wk =   0.0040733
        k(    4) = (  -0.0500000   0.0000000   0.0000000), wk =   0.0040733
        k(    5) = (  -0.0666667   0.0000000   0.0000000), wk =   0.0040733
        k(    6) = (  -0.0833333   0.0000000   0.0000000), wk =   0.0040733
        k(    7) = (  -0.1000000   0.0000000   0.0000000), wk =   0.0040733
        k(    8) = (  -0.1166667   0.0000000   0.0000000), wk =   0.0040733
        k(    9) = (  -0.1333333   0.0000000   0.0000000), wk =   0.0040733
        k(   10) = (  -0.1500000   0.0000000   0.0000000), wk =   0.0040733
        k(   11) = (  -0.1666667   0.0000000   0.0000000), wk =   0.0040733
        k(   12) = (  -0.1833333   0.0000000   0.0000000), wk =   0.0040733
        k(   13) = (  -0.2000000   0.0000000   0.0000000), wk =   0.0040733
        k(   14) = (  -0.2166667   0.0000000   0.0000000), wk =   0.0040733
        k(   15) = (  -0.2333333   0.0000000   0.0000000), wk =   0.0040733
        k(   16) = (  -0.2500000   0.0000000   0.0000000), wk =   0.0040733
        k(   17) = (  -0.2666667   0.0000000   0.0000000), wk =   0.0040733
        k(   18) = (  -0.2833333   0.0000000   0.0000000), wk =   0.0040733
        k(   19) = (  -0.3000000   0.0000000   0.0000000), wk =   0.0040733
        k(   20) = (  -0.3166667   0.0000000   0.0000000), wk =   0.0040733
        k(   21) = (  -0.3333333   0.0000000   0.0000000), wk =   0.0040733
        k(   22) = (  -0.3500000   0.0000000   0.0000000), wk =   0.0040733
        k(   23) = (  -0.3666667   0.0000000   0.0000000), wk =   0.0040733
        k(   24) = (  -0.3833333   0.0000000   0.0000000), wk =   0.0040733
        k(   25) = (  -0.4000000   0.0000000   0.0000000), wk =   0.0040733
        k(   26) = (  -0.4166667   0.0000000   0.0000000), wk =   0.0040733
        k(   27) = (  -0.4333333   0.0000000   0.0000000), wk =   0.0040733
        k(   28) = (  -0.4500000   0.0000000   0.0000000), wk =   0.0040733
        k(   29) = (  -0.4666667   0.0000000   0.0000000), wk =   0.0040733
        k(   30) = (  -0.4833333   0.0000000   0.0000000), wk =   0.0040733
        k(   31) = (  -0.5000000   0.0000000   0.0000000), wk =   0.0040733
        k(   32) = (  -0.5166667   0.0000000   0.0000000), wk =   0.0040733
        k(   33) = (  -0.5333333   0.0000000   0.0000000), wk =   0.0040733
        k(   34) = (  -0.5500000   0.0000000   0.0000000), wk =   0.0040733
        k(   35) = (  -0.5666667   0.0000000   0.0000000), wk =   0.0040733
        k(   36) = (  -0.5833333   0.0000000   0.0000000), wk =   0.0040733
        k(   37) = (  -0.6000000   0.0000000   0.0000000), wk =   0.0040733
        k(   38) = (  -0.6166667   0.0000000   0.0000000), wk =   0.0040733
        k(   39) = (  -0.6333333   0.0000000   0.0000000), wk =   0.0040733
        k(   40) = (  -0.6500000   0.0000000   0.0000000), wk =   0.0040733
        k(   41) = (  -0.6666667   0.0000000   0.0000000), wk =   0.0040733
        k(   42) = (  -0.6833333   0.0000000   0.0000000), wk =   0.0040733
        k(   43) = (  -0.7000000   0.0000000   0.0000000), wk =   0.0040733
        k(   44) = (  -0.7166667   0.0000000   0.0000000), wk =   0.0040733
        k(   45) = (  -0.7333333   0.0000000   0.0000000), wk =   0.0040733
        k(   46) = (  -0.7500000   0.0000000   0.0000000), wk =   0.0040733
        k(   47) = (  -0.7666667   0.0000000   0.0000000), wk =   0.0040733
        k(   48) = (  -0.7833333   0.0000000   0.0000000), wk =   0.0040733
        k(   49) = (  -0.8000000   0.0000000   0.0000000), wk =   0.0040733
        k(   50) = (  -0.8166667   0.0000000   0.0000000), wk =   0.0040733
        k(   51) = (  -0.8333333   0.0000000   0.0000000), wk =   0.0040733
        k(   52) = (  -0.8500000   0.0000000   0.0000000), wk =   0.0040733
        k(   53) = (  -0.8666667   0.0000000   0.0000000), wk =   0.0040733
        k(   54) = (  -0.8833333   0.0000000   0.0000000), wk =   0.0040733
        k(   55) = (  -0.9000000   0.0000000   0.0000000), wk =   0.0040733
        k(   56) = (  -0.9166667   0.0000000   0.0000000), wk =   0.0040733
        k(   57) = (  -0.9333333   0.0000000   0.0000000), wk =   0.0040733
        k(   58) = (  -0.9500000   0.0000000   0.0000000), wk =   0.0040733
        k(   59) = (  -0.9666667   0.0000000   0.0000000), wk =   0.0040733
        k(   60) = (  -0.9833333   0.0000000   0.0000000), wk =   0.0040733
        k(   61) = (  -1.0000000   0.0000000   0.0000000), wk =   0.0040733
        k(   62) = (  -1.0000000   0.0100000   0.0000000), wk =   0.0040733
        k(   63) = (  -1.0000000   0.0200000   0.0000000), wk =   0.0040733
        k(   64) = (  -1.0000000   0.0300000   0.0000000), wk =   0.0040733
        k(   65) = (  -1.0000000   0.0400000  -0.0000000), wk =   0.0040733
        k(   66) = (  -1.0000000   0.0500000   0.0000000), wk =   0.0040733
        k(   67) = (  -1.0000000   0.0600000   0.0000000), wk =   0.0040733
        k(   68) = (  -1.0000000   0.0700000   0.0000000), wk =   0.0040733
        k(   69) = (  -1.0000000   0.0800000   0.0000000), wk =   0.0040733
        k(   70) = (  -1.0000000   0.0900000  -0.0000000), wk =   0.0040733
        k(   71) = (  -1.0000000   0.1000000   0.0000000), wk =   0.0040733
        k(   72) = (  -1.0000000   0.1100000   0.0000000), wk =   0.0040733
        k(   73) = (  -1.0000000   0.1200000  -0.0000000), wk =   0.0040733
        k(   74) = (  -1.0000000   0.1300000   0.0000000), wk =   0.0040733
        k(   75) = (  -1.0000000   0.1400000  -0.0000000), wk =   0.0040733
        k(   76) = (  -1.0000000   0.1500000   0.0000000), wk =   0.0040733
        k(   77) = (  -1.0000000   0.1600000   0.0000000), wk =   0.0040733
        k(   78) = (  -1.0000000   0.1700000   0.0000000), wk =   0.0040733
        k(   79) = (  -1.0000000   0.1800000   0.0000000), wk =   0.0040733
        k(   80) = (  -1.0000000   0.1900000   0.0000000), wk =   0.0040733
        k(   81) = (  -1.0000000   0.2000000   0.0000000), wk =   0.0040733
        k(   82) = (  -1.0000000   0.2100000   0.0000000), wk =   0.0040733
        k(   83) = (  -1.0000000   0.2200000   0.0000000), wk =   0.0040733
        k(   84) = (  -1.0000000   0.2300000   0.0000000), wk =   0.0040733
        k(   85) = (  -1.0000000   0.2400000   0.0000000), wk =   0.0040733
        k(   86) = (  -1.0000000   0.2500000   0.0000000), wk =   0.0040733
        k(   87) = (  -1.0000000   0.2600000   0.0000000), wk =   0.0040733
        k(   88) = (  -1.0000000   0.2700000   0.0000000), wk =   0.0040733
        k(   89) = (  -1.0000000   0.2800000   0.0000000), wk =   0.0040733
        k(   90) = (  -1.0000000   0.2900000   0.0000000), wk =   0.0040733
        k(   91) = (  -1.0000000   0.3000000   0.0000000), wk =   0.0040733
        k(   92) = (  -1.0000000   0.3100000  -0.0000000), wk =   0.0040733
        k(   93) = (  -1.0000000   0.3200000   0.0000000), wk =   0.0040733
        k(   94) = (  -1.0000000   0.3300000  -0.0000000), wk =   0.0040733
        k(   95) = (  -1.0000000   0.3400000   0.0000000), wk =   0.0040733
        k(   96) = (  -1.0000000   0.3500000   0.0000000), wk =   0.0040733
        k(   97) = (  -1.0000000   0.3600000   0.0000000), wk =   0.0040733
        k(   98) = (  -1.0000000   0.3700000   0.0000000), wk =   0.0040733
        k(   99) = (  -1.0000000   0.3800000   0.0000000), wk =   0.0040733
        k(  100) = (  -1.0000000   0.3900000  -0.0000000), wk =   0.0040733
        k(  101) = (  -1.0000000   0.4000000   0.0000000), wk =   0.0040733
        k(  102) = (  -1.0000000   0.4100000  -0.0000000), wk =   0.0040733
        k(  103) = (  -1.0000000   0.4200000   0.0000000), wk =   0.0040733
        k(  104) = (  -1.0000000   0.4300000   0.0000000), wk =   0.0040733
        k(  105) = (  -1.0000000   0.4400000   0.0000000), wk =   0.0040733
        k(  106) = (  -1.0000000   0.4500000   0.0000000), wk =   0.0040733
        k(  107) = (  -1.0000000   0.4600000   0.0000000), wk =   0.0040733
        k(  108) = (  -1.0000000   0.4700000   0.0000000), wk =   0.0040733
        k(  109) = (  -1.0000000   0.4800000   0.0000000), wk =   0.0040733
        k(  110) = (  -1.0000000   0.4900000   0.0000000), wk =   0.0040733
        k(  111) = (  -1.0000000   0.5000000   0.0000000), wk =   0.0040733
        k(  112) = (  -0.9950000   0.5050000   0.0000000), wk =   0.0040733
        k(  113) = (  -0.9900000   0.5100000   0.0000000), wk =   0.0040733
        k(  114) = (  -0.9850000   0.5150000   0.0000000), wk =   0.0040733
        k(  115) = (  -0.9800000   0.5200000   0.0000000), wk =   0.0040733
        k(  116) = (  -0.9750000   0.5250000   0.0000000), wk =   0.0040733
        k(  117) = (  -0.9700000   0.5300000   0.0000000), wk =   0.0040733
        k(  118) = (  -0.9650000   0.5350000   0.0000000), wk =   0.0040733
        k(  119) = (  -0.9600000   0.5400000   0.0000000), wk =   0.0040733
        k(  120) = (  -0.9550000   0.5450000   0.0000000), wk =   0.0040733
        k(  121) = (  -0.9500000   0.5500000   0.0000000), wk =   0.0040733
        k(  122) = (  -0.9450000   0.5550000   0.0000000), wk =   0.0040733
        k(  123) = (  -0.9400000   0.5600000   0.0000000), wk =   0.0040733
        k(  124) = (  -0.9350000   0.5650000   0.0000000), wk =   0.0040733
        k(  125) = (  -0.9300000   0.5700000   0.0000000), wk =   0.0040733
        k(  126) = (  -0.9250000   0.5750000   0.0000000), wk =   0.0040733
        k(  127) = (  -0.9200000   0.5800000   0.0000000), wk =   0.0040733
        k(  128) = (  -0.9150000   0.5850000   0.0000000), wk =   0.0040733
        k(  129) = (  -0.9100000   0.5900000   0.0000000), wk =   0.0040733
        k(  130) = (  -0.9050000   0.5950000   0.0000000), wk =   0.0040733
        k(  131) = (  -0.9000000   0.6000000   0.0000000), wk =   0.0040733
        k(  132) = (  -0.8950000   0.6050000   0.0000000), wk =   0.0040733
        k(  133) = (  -0.8900000   0.6100000   0.0000000), wk =   0.0040733
        k(  134) = (  -0.8850000   0.6150000   0.0000000), wk =   0.0040733
        k(  135) = (  -0.8800000   0.6200000   0.0000000), wk =   0.0040733
        k(  136) = (  -0.8750000   0.6250000   0.0000000), wk =   0.0040733
        k(  137) = (  -0.8700000   0.6300000   0.0000000), wk =   0.0040733
        k(  138) = (  -0.8650000   0.6350000   0.0000000), wk =   0.0040733
        k(  139) = (  -0.8600000   0.6400000   0.0000000), wk =   0.0040733
        k(  140) = (  -0.8550000   0.6450000   0.0000000), wk =   0.0040733
        k(  141) = (  -0.8500000   0.6500000   0.0000000), wk =   0.0040733
        k(  142) = (  -0.8450000   0.6550000   0.0000000), wk =   0.0040733
        k(  143) = (  -0.8400000   0.6600000   0.0000000), wk =   0.0040733
        k(  144) = (  -0.8350000   0.6650000   0.0000000), wk =   0.0040733
        k(  145) = (  -0.8300000   0.6700000   0.0000000), wk =   0.0040733
        k(  146) = (  -0.8250000   0.6750000   0.0000000), wk =   0.0040733
        k(  147) = (  -0.8200000   0.6800000   0.0000000), wk =   0.0040733
        k(  148) = (  -0.8150000   0.6850000   0.0000000), wk =   0.0040733
        k(  149) = (  -0.8100000   0.6900000   0.0000000), wk =   0.0040733
        k(  150) = (  -0.8050000   0.6950000   0.0000000), wk =   0.0040733
        k(  151) = (  -0.8000000   0.7000000   0.0000000), wk =   0.0040733
        k(  152) = (  -0.7950000   0.7050000   0.0000000), wk =   0.0040733
        k(  153) = (  -0.7900000   0.7100000   0.0000000), wk =   0.0040733
        k(  154) = (  -0.7850000   0.7150000   0.0000000), wk =   0.0040733
        k(  155) = (  -0.7800000   0.7200000   0.0000000), wk =   0.0040733
        k(  156) = (  -0.7750000   0.7250000   0.0000000), wk =   0.0040733
        k(  157) = (  -0.7700000   0.7300000   0.0000000), wk =   0.0040733
        k(  158) = (  -0.7650000   0.7350000   0.0000000), wk =   0.0040733
        k(  159) = (  -0.7600000   0.7400000   0.0000000), wk =   0.0040733
        k(  160) = (  -0.7550000   0.7450000   0.0000000), wk =   0.0040733
        k(  161) = (  -0.7500000   0.7500000   0.0000000), wk =   0.0040733
        k(  162) = (  -0.7350000   0.7350000   0.0000000), wk =   0.0040733
        k(  163) = (  -0.7200000   0.7200000   0.0000000), wk =   0.0040733
        k(  164) = (  -0.7050000   0.7050000   0.0000000), wk =   0.0040733
        k(  165) = (  -0.6900000   0.6900000   0.0000000), wk =   0.0040733
        k(  166) = (  -0.6750000   0.6750000   0.0000000), wk =   0.0040733
        k(  167) = (  -0.6600000   0.6600000   0.0000000), wk =   0.0040733
        k(  168) = (  -0.6450000   0.6450000   0.0000000), wk =   0.0040733
        k(  169) = (  -0.6300000   0.6300000   0.0000000), wk =   0.0040733
        k(  170) = (  -0.6150000   0.6150000   0.0000000), wk =   0.0040733
        k(  171) = (  -0.6000000   0.6000000   0.0000000), wk =   0.0040733
        k(  172) = (  -0.5850000   0.5850000   0.0000000), wk =   0.0040733
        k(  173) = (  -0.5700000   0.5700000   0.0000000), wk =   0.0040733
        k(  174) = (  -0.5550000   0.5550000   0.0000000), wk =   0.0040733
        k(  175) = (  -0.5400000   0.5400000   0.0000000), wk =   0.0040733
        k(  176) = (  -0.5250000   0.5250000   0.0000000), wk =   0.0040733
        k(  177) = (  -0.5100000   0.5100000   0.0000000), wk =   0.0040733
        k(  178) = (  -0.4950000   0.4950000   0.0000000), wk =   0.0040733
        k(  179) = (  -0.4800000   0.4800000   0.0000000), wk =   0.0040733
        k(  180) = (  -0.4650000   0.4650000   0.0000000), wk =   0.0040733
        k(  181) = (  -0.4500000   0.4500000   0.0000000), wk =   0.0040733
        k(  182) = (  -0.4350000   0.4350000   0.0000000), wk =   0.0040733
        k(  183) = (  -0.4200000   0.4200000   0.0000000), wk =   0.0040733
        k(  184) = (  -0.4050000   0.4050000   0.0000000), wk =   0.0040733
        k(  185) = (  -0.3900000   0.3900000   0.0000000), wk =   0.0040733
        k(  186) = (  -0.3750000   0.3750000   0.0000000), wk =   0.0040733
        k(  187) = (  -0.3600000   0.3600000   0.0000000), wk =   0.0040733
        k(  188) = (  -0.3450000   0.3450000   0.0000000), wk =   0.0040733
        k(  189) = (  -0.3300000   0.3300000   0.0000000), wk =   0.0040733
        k(  190) = (  -0.3150000   0.3150000   0.0000000), wk =   0.0040733
        k(  191) = (  -0.3000000   0.3000000   0.0000000), wk =   0.0040733
        k(  192) = (  -0.2850000   0.2850000   0.0000000), wk =   0.0040733
        k(  193) = (  -0.2700000   0.2700000   0.0000000), wk =   0.0040733
        k(  194) = (  -0.2550000   0.2550000   0.0000000), wk =   0.0040733
        k(  195) = (  -0.2400000   0.2400000   0.0000000), wk =   0.0040733
        k(  196) = (  -0.2250000   0.2250000   0.0000000), wk =   0.0040733
        k(  197) = (  -0.2100000   0.2100000   0.0000000), wk =   0.0040733
        k(  198) = (  -0.1950000   0.1950000   0.0000000), wk =   0.0040733
        k(  199) = (  -0.1800000   0.1800000   0.0000000), wk =   0.0040733
        k(  200) = (  -0.1650000   0.1650000   0.0000000), wk =   0.0040733
        k(  201) = (  -0.1500000   0.1500000   0.0000000), wk =   0.0040733
        k(  202) = (  -0.1350000   0.1350000   0.0000000), wk =   0.0040733
        k(  203) = (  -0.1200000   0.1200000   0.0000000), wk =   0.0040733
        k(  204) = (  -0.1050000   0.1050000   0.0000000), wk =   0.0040733
        k(  205) = (  -0.0900000   0.0900000   0.0000000), wk =   0.0040733
        k(  206) = (  -0.0750000   0.0750000   0.0000000), wk =   0.0040733
        k(  207) = (  -0.0600000   0.0600000   0.0000000), wk =   0.0040733
        k(  208) = (  -0.0450000   0.0450000   0.0000000), wk =   0.0040733
        k(  209) = (  -0.0300000   0.0300000   0.0000000), wk =   0.0040733
        k(  210) = (  -0.0150000   0.0150000   0.0000000), wk =   0.0040733
        k(  211) = (   0.0000000   0.0000000   0.0000000), wk =   0.0040733
        k(  212) = (  -0.0083333   0.0083333   0.0083333), wk =   0.0040733
        k(  213) = (  -0.0166667   0.0166667   0.0166667), wk =   0.0040733
        k(  214) = (  -0.0250000   0.0250000   0.0250000), wk =   0.0040733
        k(  215) = (  -0.0333333   0.0333333   0.0333333), wk =   0.0040733
        k(  216) = (  -0.0416667   0.0416667   0.0416667), wk =   0.0040733
        k(  217) = (  -0.0500000   0.0500000   0.0500000), wk =   0.0040733
        k(  218) = (  -0.0583333   0.0583333   0.0583333), wk =   0.0040733
        k(  219) = (  -0.0666667   0.0666667   0.0666667), wk =   0.0040733
        k(  220) = (  -0.0750000   0.0750000   0.0750000), wk =   0.0040733
        k(  221) = (  -0.0833333   0.0833333   0.0833333), wk =   0.0040733
        k(  222) = (  -0.0916667   0.0916667   0.0916667), wk =   0.0040733
        k(  223) = (  -0.1000000   0.1000000   0.1000000), wk =   0.0040733
        k(  224) = (  -0.1083333   0.1083333   0.1083333), wk =   0.0040733
        k(  225) = (  -0.1166667   0.1166667   0.1166667), wk =   0.0040733
        k(  226) = (  -0.1250000   0.1250000   0.1250000), wk =   0.0040733
        k(  227) = (  -0.1333333   0.1333333   0.1333333), wk =   0.0040733
        k(  228) = (  -0.1416667   0.1416667   0.1416667), wk =   0.0040733
        k(  229) = (  -0.1500000   0.1500000   0.1500000), wk =   0.0040733
        k(  230) = (  -0.1583333   0.1583333   0.1583333), wk =   0.0040733
        k(  231) = (  -0.1666667   0.1666667   0.1666667), wk =   0.0040733
        k(  232) = (  -0.1750000   0.1750000   0.1750000), wk =   0.0040733
        k(  233) = (  -0.1833333   0.1833333   0.1833333), wk =   0.0040733
        k(  234) = (  -0.1916667   0.1916667   0.1916667), wk =   0.0040733
        k(  235) = (  -0.2000000   0.2000000   0.2000000), wk =   0.0040733
        k(  236) = (  -0.2083333   0.2083333   0.2083333), wk =   0.0040733
        k(  237) = (  -0.2166667   0.2166667   0.2166667), wk =   0.0040733
        k(  238) = (  -0.2250000   0.2250000   0.2250000), wk =   0.0040733
        k(  239) = (  -0.2333333   0.2333333   0.2333333), wk =   0.0040733
        k(  240) = (  -0.2416667   0.2416667   0.2416667), wk =   0.0040733
        k(  241) = (  -0.2500000   0.2500000   0.2500000), wk =   0.0040733
        k(  242) = (  -0.2583333   0.2583333   0.2583333), wk =   0.0040733
        k(  243) = (  -0.2666667   0.2666667   0.2666667), wk =   0.0040733
        k(  244) = (  -0.2750000   0.2750000   0.2750000), wk =   0.0040733
        k(  245) = (  -0.2833333   0.2833333   0.2833333), wk =   0.0040733
        k(  246) = (  -0.2916667   0.2916667   0.2916667), wk =   0.0040733
        k(  247) = (  -0.3000000   0.3000000   0.3000000), wk =   0.0040733
        k(  248) = (  -0.3083333   0.3083333   0.3083333), wk =   0.0040733
        k(  249) = (  -0.3166667   0.3166667   0.3166667), wk =   0.0040733
        k(  250) = (  -0.3250000   0.3250000   0.3250000), wk =   0.0040733
        k(  251) = (  -0.3333333   0.3333333   0.3333333), wk =   0.0040733
        k(  252) = (  -0.3416667   0.3416667   0.3416667), wk =   0.0040733
        k(  253) = (  -0.3500000   0.3500000   0.3500000), wk =   0.0040733
        k(  254) = (  -0.3583333   0.3583333   0.3583333), wk =   0.0040733
        k(  255) = (  -0.3666667   0.3666667   0.3666667), wk =   0.0040733
        k(  256) = (  -0.3750000   0.3750000   0.3750000), wk =   0.0040733
        k(  257) = (  -0.3833333   0.3833333   0.3833333), wk =   0.0040733
        k(  258) = (  -0.3916667   0.3916667   0.3916667), wk =   0.0040733
        k(  259) = (  -0.4000000   0.4000000   0.4000000), wk =   0.0040733
        k(  260) = (  -0.4083333   0.4083333   0.4083333), wk =   0.0040733
        k(  261) = (  -0.4166667   0.4166667   0.4166667), wk =   0.0040733
        k(  262) = (  -0.4250000   0.4250000   0.4250000), wk =   0.0040733
        k(  263) = (  -0.4333333   0.4333333   0.4333333), wk =   0.0040733
        k(  264) = (  -0.4416667   0.4416667   0.4416667), wk =   0.0040733
        k(  265) = (  -0.4500000   0.4500000   0.4500000), wk =   0.0040733
        k(  266) = (  -0.4583333   0.4583333   0.4583333), wk =   0.0040733
        k(  267) = (  -0.4666667   0.4666667   0.4666667), wk =   0.0040733
        k(  268) = (  -0.4750000   0.4750000   0.4750000), wk =   0.0040733
        k(  269) = (  -0.4833333   0.4833333   0.4833333), wk =   0.0040733
        k(  270) = (  -0.4916667   0.4916667   0.4916667), wk =   0.0040733
        k(  271) = (  -0.5000000   0.5000000   0.5000000), wk =   0.0040733
        k(  272) = (  -0.5083333   0.4958333   0.4958333), wk =   0.0040733
        k(  273) = (  -0.5166667   0.4916667   0.4916667), wk =   0.0040733
        k(  274) = (  -0.5250000   0.4875000   0.4875000), wk =   0.0040733
        k(  275) = (  -0.5333333   0.4833333   0.4833333), wk =   0.0040733
        k(  276) = (  -0.5416667   0.4791667   0.4791667), wk =   0.0040733
        k(  277) = (  -0.5500000   0.4750000   0.4750000), wk =   0.0040733
        k(  278) = (  -0.5583333   0.4708333   0.4708333), wk =   0.0040733
        k(  279) = (  -0.5666667   0.4666667   0.4666667), wk =   0.0040733
        k(  280) = (  -0.5750000   0.4625000   0.4625000), wk =   0.0040733
        k(  281) = (  -0.5833333   0.4583333   0.4583333), wk =   0.0040733
        k(  282) = (  -0.5916667   0.4541667   0.4541667), wk =   0.0040733
        k(  283) = (  -0.6000000   0.4500000   0.4500000), wk =   0.0040733
        k(  284) = (  -0.6083333   0.4458333   0.4458333), wk =   0.0040733
        k(  285) = (  -0.6166667   0.4416667   0.4416667), wk =   0.0040733
        k(  286) = (  -0.6250000   0.4375000   0.4375000), wk =   0.0040733
        k(  287) = (  -0.6333333   0.4333333   0.4333333), wk =   0.0040733
        k(  288) = (  -0.6416667   0.4291667   0.4291667), wk =   0.0040733
        k(  289) = (  -0.6500000   0.4250000   0.4250000), wk =   0.0040733
        k(  290) = (  -0.6583333   0.4208333   0.4208333), wk =   0.0040733
        k(  291) = (  -0.6666667   0.4166667   0.4166667), wk =   0.0040733
        k(  292) = (  -0.6750000   0.4125000   0.4125000), wk =   0.0040733
        k(  293) = (  -0.6833333   0.4083333   0.4083333), wk =   0.0040733
        k(  294) = (  -0.6916667   0.4041667   0.4041667), wk =   0.0040733
        k(  295) = (  -0.7000000   0.4000000   0.4000000), wk =   0.0040733
        k(  296) = (  -0.7083333   0.3958333   0.3958333), wk =   0.0040733
        k(  297) = (  -0.7166667   0.3916667   0.3916667), wk =   0.0040733
        k(  298) = (  -0.7250000   0.3875000   0.3875000), wk =   0.0040733
        k(  299) = (  -0.7333333   0.3833333   0.3833333), wk =   0.0040733
        k(  300) = (  -0.7416667   0.3791667   0.3791667), wk =   0.0040733
        k(  301) = (  -0.7500000   0.3750000   0.3750000), wk =   0.0040733
        k(  302) = (  -0.7583333   0.3708333   0.3708333), wk =   0.0040733
        k(  303) = (  -0.7666667   0.3666667   0.3666667), wk =   0.0040733
        k(  304) = (  -0.7750000   0.3625000   0.3625000), wk =   0.0040733
        k(  305) = (  -0.7833333   0.3583333   0.3583333), wk =   0.0040733
        k(  306) = (  -0.7916667   0.3541667   0.3541667), wk =   0.0040733
        k(  307) = (  -0.8000000   0.3500000   0.3500000), wk =   0.0040733
        k(  308) = (  -0.8083333   0.3458333   0.3458333), wk =   0.0040733
        k(  309) = (  -0.8166667   0.3416667   0.3416667), wk =   0.0040733
        k(  310) = (  -0.8250000   0.3375000   0.3375000), wk =   0.0040733
        k(  311) = (  -0.8333333   0.3333333   0.3333333), wk =   0.0040733
        k(  312) = (  -0.8416667   0.3291667   0.3291667), wk =   0.0040733
        k(  313) = (  -0.8500000   0.3250000   0.3250000), wk =   0.0040733
        k(  314) = (  -0.8583333   0.3208333   0.3208333), wk =   0.0040733
        k(  315) = (  -0.8666667   0.3166667   0.3166667), wk =   0.0040733
        k(  316) = (  -0.8750000   0.3125000   0.3125000), wk =   0.0040733
        k(  317) = (  -0.8833333   0.3083333   0.3083333), wk =   0.0040733
        k(  318) = (  -0.8916667   0.3041667   0.3041667), wk =   0.0040733
        k(  319) = (  -0.9000000   0.3000000   0.3000000), wk =   0.0040733
        k(  320) = (  -0.9083333   0.2958333   0.2958333), wk =   0.0040733
        k(  321) = (  -0.9166667   0.2916667   0.2916667), wk =   0.0040733
        k(  322) = (  -0.9250000   0.2875000   0.2875000), wk =   0.0040733
        k(  323) = (  -0.9333333   0.2833333   0.2833333), wk =   0.0040733
        k(  324) = (  -0.9416667   0.2791667   0.2791667), wk =   0.0040733
        k(  325) = (  -0.9500000   0.2750000   0.2750000), wk =   0.0040733
        k(  326) = (  -0.9583333   0.2708333   0.2708333), wk =   0.0040733
        k(  327) = (  -0.9666667   0.2666667   0.2666667), wk =   0.0040733
        k(  328) = (  -0.9750000   0.2625000   0.2625000), wk =   0.0040733
        k(  329) = (  -0.9833333   0.2583333   0.2583333), wk =   0.0040733
        k(  330) = (  -0.9916667   0.2541667   0.2541667), wk =   0.0040733
        k(  331) = (  -1.0000000   0.2500000   0.2500000), wk =   0.0040733
        k(  332) = (  -1.0000000   0.2550000   0.2450000), wk =   0.0040733
        k(  333) = (  -1.0000000   0.2600000   0.2400000), wk =   0.0040733
        k(  334) = (  -1.0000000   0.2650000   0.2350000), wk =   0.0040733
        k(  335) = (  -1.0000000   0.2700000   0.2300000), wk =   0.0040733
        k(  336) = (  -1.0000000   0.2750000   0.2250000), wk =   0.0040733
        k(  337) = (  -1.0000000   0.2800000   0.2200000), wk =   0.0040733
        k(  338) = (  -1.0000000   0.2850000   0.2150000), wk =   0.0040733
        k(  339) = (  -1.0000000   0.2900000   0.2100000), wk =   0.0040733
        k(  340) = (  -1.0000000   0.2950000   0.2050000), wk =   0.0040733
        k(  341) = (  -1.0000000   0.3000000   0.2000000), wk =   0.0040733
        k(  342) = (  -1.0000000   0.3050000   0.1950000), wk =   0.0040733
        k(  343) = (  -1.0000000   0.3100000   0.1900000), wk =   0.0040733
        k(  344) = (  -1.0000000   0.3150000   0.1850000), wk =   0.0040733
        k(  345) = (  -1.0000000   0.3200000   0.1800000), wk =   0.0040733
        k(  346) = (  -1.0000000   0.3250000   0.1750000), wk =   0.0040733
        k(  347) = (  -1.0000000   0.3300000   0.1700000), wk =   0.0040733
        k(  348) = (  -1.0000000   0.3350000   0.1650000), wk =   0.0040733
        k(  349) = (  -1.0000000   0.3400000   0.1600000), wk =   0.0040733
        k(  350) = (  -1.0000000   0.3450000   0.1550000), wk =   0.0040733
        k(  351) = (  -1.0000000   0.3500000   0.1500000), wk =   0.0040733
        k(  352) = (  -1.0000000   0.3550000   0.1450000), wk =   0.0040733
        k(  353) = (  -1.0000000   0.3600000   0.1400000), wk =   0.0040733
        k(  354) = (  -1.0000000   0.3650000   0.1350000), wk =   0.0040733
        k(  355) = (  -1.0000000   0.3700000   0.1300000), wk =   0.0040733
        k(  356) = (  -1.0000000   0.3750000   0.1250000), wk =   0.0040733
        k(  357) = (  -1.0000000   0.3800000   0.1200000), wk =   0.0040733
        k(  358) = (  -1.0000000   0.3850000   0.1150000), wk =   0.0040733
        k(  359) = (  -1.0000000   0.3900000   0.1100000), wk =   0.0040733
        k(  360) = (  -1.0000000   0.3950000   0.1050000), wk =   0.0040733
        k(  361) = (  -1.0000000   0.4000000   0.1000000), wk =   0.0040733
        k(  362) = (  -1.0000000   0.4050000   0.0950000), wk =   0.0040733
        k(  363) = (  -1.0000000   0.4100000   0.0900000), wk =   0.0040733
        k(  364) = (  -1.0000000   0.4150000   0.0850000), wk =   0.0040733
        k(  365) = (  -1.0000000   0.4200000   0.0800000), wk =   0.0040733
        k(  366) = (  -1.0000000   0.4250000   0.0750000), wk =   0.0040733
        k(  367) = (  -1.0000000   0.4300000   0.0700000), wk =   0.0040733
        k(  368) = (  -1.0000000   0.4350000   0.0650000), wk =   0.0040733
        k(  369) = (  -1.0000000   0.4400000   0.0600000), wk =   0.0040733
        k(  370) = (  -1.0000000   0.4450000   0.0550000), wk =   0.0040733
        k(  371) = (  -1.0000000   0.4500000   0.0500000), wk =   0.0040733
        k(  372) = (  -1.0000000   0.4550000   0.0450000), wk =   0.0040733
        k(  373) = (  -1.0000000   0.4600000   0.0400000), wk =   0.0040733
        k(  374) = (  -1.0000000   0.4650000   0.0350000), wk =   0.0040733
        k(  375) = (  -1.0000000   0.4700000   0.0300000), wk =   0.0040733
        k(  376) = (  -1.0000000   0.4750000   0.0250000), wk =   0.0040733
        k(  377) = (  -1.0000000   0.4800000   0.0200000), wk =   0.0040733
        k(  378) = (  -1.0000000   0.4850000   0.0150000), wk =   0.0040733
        k(  379) = (  -1.0000000   0.4900000   0.0100000), wk =   0.0040733
        k(  380) = (  -1.0000000   0.4950000   0.0050000), wk =   0.0040733
        k(  381) = (  -1.0000000   0.5000000   0.0000000), wk =   0.0040733
        k(  382) = (  -0.9900000   0.5000000   0.0100000), wk =   0.0040733
        k(  383) = (  -0.9800000   0.5000000   0.0200000), wk =   0.0040733
        k(  384) = (  -0.9700000   0.5000000   0.0300000), wk =   0.0040733
        k(  385) = (  -0.9600000   0.5000000   0.0400000), wk =   0.0040733
        k(  386) = (  -0.9500000   0.5000000   0.0500000), wk =   0.0040733
        k(  387) = (  -0.9400000   0.5000000   0.0600000), wk =   0.0040733
        k(  388) = (  -0.9300000   0.5000000   0.0700000), wk =   0.0040733
        k(  389) = (  -0.9200000   0.5000000   0.0800000), wk =   0.0040733
        k(  390) = (  -0.9100000   0.5000000   0.0900000), wk =   0.0040733
        k(  391) = (  -0.9000000   0.5000000   0.1000000), wk =   0.0040733
        k(  392) = (  -0.8900000   0.5000000   0.1100000), wk =   0.0040733
        k(  393) = (  -0.8800000   0.5000000   0.1200000), wk =   0.0040733
        k(  394) = (  -0.8700000   0.5000000   0.1300000), wk =   0.0040733
        k(  395) = (  -0.8600000   0.5000000   0.1400000), wk =   0.0040733
        k(  396) = (  -0.8500000   0.5000000   0.1500000), wk =   0.0040733
        k(  397) = (  -0.8400000   0.5000000   0.1600000), wk =   0.0040733
        k(  398) = (  -0.8300000   0.5000000   0.1700000), wk =   0.0040733
        k(  399) = (  -0.8200000   0.5000000   0.1800000), wk =   0.0040733
        k(  400) = (  -0.8100000   0.5000000   0.1900000), wk =   0.0040733
        k(  401) = (  -0.8000000   0.5000000   0.2000000), wk =   0.0040733
        k(  402) = (  -0.7900000   0.5000000   0.2100000), wk =   0.0040733
        k(  403) = (  -0.7800000   0.5000000   0.2200000), wk =   0.0040733
        k(  404) = (  -0.7700000   0.5000000   0.2300000), wk =   0.0040733
        k(  405) = (  -0.7600000   0.5000000   0.2400000), wk =   0.0040733
        k(  406) = (  -0.7500000   0.5000000   0.2500000), wk =   0.0040733
        k(  407) = (  -0.7400000   0.5000000   0.2600000), wk =   0.0040733
        k(  408) = (  -0.7300000   0.5000000   0.2700000), wk =   0.0040733
        k(  409) = (  -0.7200000   0.5000000   0.2800000), wk =   0.0040733
        k(  410) = (  -0.7100000   0.5000000   0.2900000), wk =   0.0040733
        k(  411) = (  -0.7000000   0.5000000   0.3000000), wk =   0.0040733
        k(  412) = (  -0.6900000   0.5000000   0.3100000), wk =   0.0040733
        k(  413) = (  -0.6800000   0.5000000   0.3200000), wk =   0.0040733
        k(  414) = (  -0.6700000   0.5000000   0.3300000), wk =   0.0040733
        k(  415) = (  -0.6600000   0.5000000   0.3400000), wk =   0.0040733
        k(  416) = (  -0.6500000   0.5000000   0.3500000), wk =   0.0040733
        k(  417) = (  -0.6400000   0.5000000   0.3600000), wk =   0.0040733
        k(  418) = (  -0.6300000   0.5000000   0.3700000), wk =   0.0040733
        k(  419) = (  -0.6200000   0.5000000   0.3800000), wk =   0.0040733
        k(  420) = (  -0.6100000   0.5000000   0.3900000), wk =   0.0040733
        k(  421) = (  -0.6000000   0.5000000   0.4000000), wk =   0.0040733
        k(  422) = (  -0.5900000   0.5000000   0.4100000), wk =   0.0040733
        k(  423) = (  -0.5800000   0.5000000   0.4200000), wk =   0.0040733
        k(  424) = (  -0.5700000   0.5000000   0.4300000), wk =   0.0040733
        k(  425) = (  -0.5600000   0.5000000   0.4400000), wk =   0.0040733
        k(  426) = (  -0.5500000   0.5000000   0.4500000), wk =   0.0040733
        k(  427) = (  -0.5400000   0.5000000   0.4600000), wk =   0.0040733
        k(  428) = (  -0.5300000   0.5000000   0.4700000), wk =   0.0040733
        k(  429) = (  -0.5200000   0.5000000   0.4800000), wk =   0.0040733
        k(  430) = (  -0.5100000   0.5000000   0.4900000), wk =   0.0040733
        k(  431) = (  -0.5000000   0.5000000   0.5000000), wk =   0.0040733
        k(  432) = (  -0.5041667   0.5041667   0.4916667), wk =   0.0040733
        k(  433) = (  -0.5083333   0.5083333   0.4833333), wk =   0.0040733
        k(  434) = (  -0.5125000   0.5125000   0.4750000), wk =   0.0040733
        k(  435) = (  -0.5166667   0.5166667   0.4666667), wk =   0.0040733
        k(  436) = (  -0.5208333   0.5208333   0.4583333), wk =   0.0040733
        k(  437) = (  -0.5250000   0.5250000   0.4500000), wk =   0.0040733
        k(  438) = (  -0.5291667   0.5291667   0.4416667), wk =   0.0040733
        k(  439) = (  -0.5333333   0.5333333   0.4333333), wk =   0.0040733
        k(  440) = (  -0.5375000   0.5375000   0.4250000), wk =   0.0040733
        k(  441) = (  -0.5416667   0.5416667   0.4166667), wk =   0.0040733
        k(  442) = (  -0.5458333   0.5458333   0.4083333), wk =   0.0040733
        k(  443) = (  -0.5500000   0.5500000   0.4000000), wk =   0.0040733
        k(  444) = (  -0.5541667   0.5541667   0.3916667), wk =   0.0040733
        k(  445) = (  -0.5583333   0.5583333   0.3833333), wk =   0.0040733
        k(  446) = (  -0.5625000   0.5625000   0.3750000), wk =   0.0040733
        k(  447) = (  -0.5666667   0.5666667   0.3666667), wk =   0.0040733
        k(  448) = (  -0.5708333   0.5708333   0.3583333), wk =   0.0040733
        k(  449) = (  -0.5750000   0.5750000   0.3500000), wk =   0.0040733
        k(  450) = (  -0.5791667   0.5791667   0.3416667), wk =   0.0040733
        k(  451) = (  -0.5833333   0.5833333   0.3333333), wk =   0.0040733
        k(  452) = (  -0.5875000   0.5875000   0.3250000), wk =   0.0040733
        k(  453) = (  -0.5916667   0.5916667   0.3166667), wk =   0.0040733
        k(  454) = (  -0.5958333   0.5958333   0.3083333), wk =   0.0040733
        k(  455) = (  -0.6000000   0.6000000   0.3000000), wk =   0.0040733
        k(  456) = (  -0.6041667   0.6041667   0.2916667), wk =   0.0040733
        k(  457) = (  -0.6083333   0.6083333   0.2833333), wk =   0.0040733
        k(  458) = (  -0.6125000   0.6125000   0.2750000), wk =   0.0040733
        k(  459) = (  -0.6166667   0.6166667   0.2666667), wk =   0.0040733
        k(  460) = (  -0.6208333   0.6208333   0.2583333), wk =   0.0040733
        k(  461) = (  -0.6250000   0.6250000   0.2500000), wk =   0.0040733
        k(  462) = (  -0.6291667   0.6291667   0.2416667), wk =   0.0040733
        k(  463) = (  -0.6333333   0.6333333   0.2333333), wk =   0.0040733
        k(  464) = (  -0.6375000   0.6375000   0.2250000), wk =   0.0040733
        k(  465) = (  -0.6416667   0.6416667   0.2166667), wk =   0.0040733
        k(  466) = (  -0.6458333   0.6458333   0.2083333), wk =   0.0040733
        k(  467) = (  -0.6500000   0.6500000   0.2000000), wk =   0.0040733
        k(  468) = (  -0.6541667   0.6541667   0.1916667), wk =   0.0040733
        k(  469) = (  -0.6583333   0.6583333   0.1833333), wk =   0.0040733
        k(  470) = (  -0.6625000   0.6625000   0.1750000), wk =   0.0040733
        k(  471) = (  -0.6666667   0.6666667   0.1666667), wk =   0.0040733
        k(  472) = (  -0.6708333   0.6708333   0.1583333), wk =   0.0040733
        k(  473) = (  -0.6750000   0.6750000   0.1500000), wk =   0.0040733
        k(  474) = (  -0.6791667   0.6791667   0.1416667), wk =   0.0040733
        k(  475) = (  -0.6833333   0.6833333   0.1333333), wk =   0.0040733
        k(  476) = (  -0.6875000   0.6875000   0.1250000), wk =   0.0040733
        k(  477) = (  -0.6916667   0.6916667   0.1166667), wk =   0.0040733
        k(  478) = (  -0.6958333   0.6958333   0.1083333), wk =   0.0040733
        k(  479) = (  -0.7000000   0.7000000   0.1000000), wk =   0.0040733
        k(  480) = (  -0.7041667   0.7041667   0.0916667), wk =   0.0040733
        k(  481) = (  -0.7083333   0.7083333   0.0833333), wk =   0.0040733
        k(  482) = (  -0.7125000   0.7125000   0.0750000), wk =   0.0040733
        k(  483) = (  -0.7166667   0.7166667   0.0666667), wk =   0.0040733
        k(  484) = (  -0.7208333   0.7208333   0.0583333), wk =   0.0040733
        k(  485) = (  -0.7250000   0.7250000   0.0500000), wk =   0.0040733
        k(  486) = (  -0.7291667   0.7291667   0.0416667), wk =   0.0040733
        k(  487) = (  -0.7333333   0.7333333   0.0333333), wk =   0.0040733
        k(  488) = (  -0.7375000   0.7375000   0.0250000), wk =   0.0040733
        k(  489) = (  -0.7416667   0.7416667   0.0166667), wk =   0.0040733
        k(  490) = (  -0.7458333   0.7458333   0.0083333), wk =   0.0040733
        k(  491) = (  -0.7500000   0.7500000   0.0000000), wk =   0.0040733

                       cryst. coord.
        k(    1) = (   0.0000000   0.0000000   0.0000000), wk =   0.0040733
        k(    2) = (   0.0083333   0.0000000   0.0083333), wk =   0.0040733
        k(    3) = (   0.0166667   0.0000000   0.0166667), wk =   0.0040733
        k(    4) = (   0.0250000   0.0000000   0.0250000), wk =   0.0040733
        k(    5) = (   0.0333333   0.0000000   0.0333333), wk =   0.0040733
        k(    6) = (   0.0416667   0.0000000   0.0416667), wk =   0.0040733
        k(    7) = (   0.0500000   0.0000000   0.0500000), wk =   0.0040733
        k(    8) = (   0.0583333   0.0000000   0.0583333), wk =   0.0040733
        k(    9) = (   0.0666667   0.0000000   0.0666667), wk =   0.0040733
        k(   10) = (   0.0750000   0.0000000   0.0750000), wk =   0.0040733
        k(   11) = (   0.0833333   0.0000000   0.0833333), wk =   0.0040733
        k(   12) = (   0.0916667   0.0000000   0.0916667), wk =   0.0040733
        k(   13) = (   0.1000000   0.0000000   0.1000000), wk =   0.0040733
        k(   14) = (   0.1083333   0.0000000   0.1083333), wk =   0.0040733
        k(   15) = (   0.1166667   0.0000000   0.1166667), wk =   0.0040733
        k(   16) = (   0.1250000   0.0000000   0.1250000), wk =   0.0040733
        k(   17) = (   0.1333333   0.0000000   0.1333333), wk =   0.0040733
        k(   18) = (   0.1416667   0.0000000   0.1416667), wk =   0.0040733
        k(   19) = (   0.1500000   0.0000000   0.1500000), wk =   0.0040733
        k(   20) = (   0.1583333   0.0000000   0.1583333), wk =   0.0040733
        k(   21) = (   0.1666667   0.0000000   0.1666667), wk =   0.0040733
        k(   22) = (   0.1750000   0.0000000   0.1750000), wk =   0.0040733
        k(   23) = (   0.1833333   0.0000000   0.1833333), wk =   0.0040733
        k(   24) = (   0.1916667   0.0000000   0.1916667), wk =   0.0040733
        k(   25) = (   0.2000000   0.0000000   0.2000000), wk =   0.0040733
        k(   26) = (   0.2083333   0.0000000   0.2083333), wk =   0.0040733
        k(   27) = (   0.2166667   0.0000000   0.2166667), wk =   0.0040733
        k(   28) = (   0.2250000   0.0000000   0.2250000), wk =   0.0040733
        k(   29) = (   0.2333333   0.0000000   0.2333333), wk =   0.0040733
        k(   30) = (   0.2416667   0.0000000   0.2416667), wk =   0.0040733
        k(   31) = (   0.2500000   0.0000000   0.2500000), wk =   0.0040733
        k(   32) = (   0.2583333   0.0000000   0.2583333), wk =   0.0040733
        k(   33) = (   0.2666667   0.0000000   0.2666667), wk =   0.0040733
        k(   34) = (   0.2750000   0.0000000   0.2750000), wk =   0.0040733
        k(   35) = (   0.2833333   0.0000000   0.2833333), wk =   0.0040733
        k(   36) = (   0.2916667   0.0000000   0.2916667), wk =   0.0040733
        k(   37) = (   0.3000000   0.0000000   0.3000000), wk =   0.0040733
        k(   38) = (   0.3083333   0.0000000   0.3083333), wk =   0.0040733
        k(   39) = (   0.3166667   0.0000000   0.3166667), wk =   0.0040733
        k(   40) = (   0.3250000   0.0000000   0.3250000), wk =   0.0040733
        k(   41) = (   0.3333333   0.0000000   0.3333333), wk =   0.0040733
        k(   42) = (   0.3416667   0.0000000   0.3416667), wk =   0.0040733
        k(   43) = (   0.3500000   0.0000000   0.3500000), wk =   0.0040733
        k(   44) = (   0.3583333   0.0000000   0.3583333), wk =   0.0040733
        k(   45) = (   0.3666667   0.0000000   0.3666667), wk =   0.0040733
        k(   46) = (   0.3750000   0.0000000   0.3750000), wk =   0.0040733
        k(   47) = (   0.3833333   0.0000000   0.3833333), wk =   0.0040733
        k(   48) = (   0.3916667   0.0000000   0.3916667), wk =   0.0040733
        k(   49) = (   0.4000000   0.0000000   0.4000000), wk =   0.0040733
        k(   50) = (   0.4083333   0.0000000   0.4083333), wk =   0.0040733
        k(   51) = (   0.4166667   0.0000000   0.4166667), wk =   0.0040733
        k(   52) = (   0.4250000   0.0000000   0.4250000), wk =   0.0040733
        k(   53) = (   0.4333333   0.0000000   0.4333333), wk =   0.0040733
        k(   54) = (   0.4416667   0.0000000   0.4416667), wk =   0.0040733
        k(   55) = (   0.4500000   0.0000000   0.4500000), wk =   0.0040733
        k(   56) = (   0.4583333   0.0000000   0.4583333), wk =   0.0040733
        k(   57) = (   0.4666667   0.0000000   0.4666667), wk =   0.0040733
        k(   58) = (   0.4750000   0.0000000   0.4750000), wk =   0.0040733
        k(   59) = (   0.4833333   0.0000000   0.4833333), wk =   0.0040733
        k(   60) = (   0.4916667   0.0000000   0.4916667), wk =   0.0040733
        k(   61) = (   0.5000000   0.0000000   0.5000000), wk =   0.0040733
        k(   62) = (   0.5000000   0.0050000   0.5050000), wk =   0.0040733
        k(   63) = (   0.5000000   0.0100000   0.5100000), wk =   0.0040733
        k(   64) = (   0.5000000   0.0150000   0.5150000), wk =   0.0040733
        k(   65) = (   0.5000000   0.0200000   0.5200000), wk =   0.0040733
        k(   66) = (   0.5000000   0.0250000   0.5250000), wk =   0.0040733
        k(   67) = (   0.5000000   0.0300000   0.5300000), wk =   0.0040733
        k(   68) = (   0.5000000   0.0350000   0.5350000), wk =   0.0040733
        k(   69) = (   0.5000000   0.0400000   0.5400000), wk =   0.0040733
        k(   70) = (   0.5000000   0.0450000   0.5450000), wk =   0.0040733
        k(   71) = (   0.5000000   0.0500000   0.5500000), wk =   0.0040733
        k(   72) = (   0.5000000   0.0550000   0.5550000), wk =   0.0040733
        k(   73) = (   0.5000000   0.0600000   0.5600000), wk =   0.0040733
        k(   74) = (   0.5000000   0.0650000   0.5650000), wk =   0.0040733
        k(   75) = (   0.5000000   0.0700000   0.5700000), wk =   0.0040733
        k(   76) = (   0.5000000   0.0750000   0.5750000), wk =   0.0040733
        k(   77) = (   0.5000000   0.0800000   0.5800000), wk =   0.0040733
        k(   78) = (   0.5000000   0.0850000   0.5850000), wk =   0.0040733
        k(   79) = (   0.5000000   0.0900000   0.5900000), wk =   0.0040733
        k(   80) = (   0.5000000   0.0950000   0.5950000), wk =   0.0040733
        k(   81) = (   0.5000000   0.1000000   0.6000000), wk =   0.0040733
        k(   82) = (   0.5000000   0.1050000   0.6050000), wk =   0.0040733
        k(   83) = (   0.5000000   0.1100000   0.6100000), wk =   0.0040733
        k(   84) = (   0.5000000   0.1150000   0.6150000), wk =   0.0040733
        k(   85) = (   0.5000000   0.1200000   0.6200000), wk =   0.0040733
        k(   86) = (   0.5000000   0.1250000   0.6250000), wk =   0.0040733
        k(   87) = (   0.5000000   0.1300000   0.6300000), wk =   0.0040733
        k(   88) = (   0.5000000   0.1350000   0.6350000), wk =   0.0040733
        k(   89) = (   0.5000000   0.1400000   0.6400000), wk =   0.0040733
        k(   90) = (   0.5000000   0.1450000   0.6450000), wk =   0.0040733
        k(   91) = (   0.5000000   0.1500000   0.6500000), wk =   0.0040733
        k(   92) = (   0.5000000   0.1550000   0.6550000), wk =   0.0040733
        k(   93) = (   0.5000000   0.1600000   0.6600000), wk =   0.0040733
        k(   94) = (   0.5000000   0.1650000   0.6650000), wk =   0.0040733
        k(   95) = (   0.5000000   0.1700000   0.6700000), wk =   0.0040733
        k(   96) = (   0.5000000   0.1750000   0.6750000), wk =   0.0040733
        k(   97) = (   0.5000000   0.1800000   0.6800000), wk =   0.0040733
        k(   98) = (   0.5000000   0.1850000   0.6850000), wk =   0.0040733
        k(   99) = (   0.5000000   0.1900000   0.6900000), wk =   0.0040733
        k(  100) = (   0.5000000   0.1950000   0.6950000), wk =   0.0040733
        k(  101) = (   0.5000000   0.2000000   0.7000000), wk =   0.0040733
        k(  102) = (   0.5000000   0.2050000   0.7050000), wk =   0.0040733
        k(  103) = (   0.5000000   0.2100000   0.7100000), wk =   0.0040733
        k(  104) = (   0.5000000   0.2150000   0.7150000), wk =   0.0040733
        k(  105) = (   0.5000000   0.2200000   0.7200000), wk =   0.0040733
        k(  106) = (   0.5000000   0.2250000   0.7250000), wk =   0.0040733
        k(  107) = (   0.5000000   0.2300000   0.7300000), wk =   0.0040733
        k(  108) = (   0.5000000   0.2350000   0.7350000), wk =   0.0040733
        k(  109) = (   0.5000000   0.2400000   0.7400000), wk =   0.0040733
        k(  110) = (   0.5000000   0.2450000   0.7450000), wk =   0.0040733
        k(  111) = (   0.5000000   0.2500000   0.7500000), wk =   0.0040733
        k(  112) = (   0.4975000   0.2525000   0.7500000), wk =   0.0040733
        k(  113) = (   0.4950000   0.2550000   0.7500000), wk =   0.0040733
        k(  114) = (   0.4925000   0.2575000   0.7500000), wk =   0.0040733
        k(  115) = (   0.4900000   0.2600000   0.7500000), wk =   0.0040733
        k(  116) = (   0.4875000   0.2625000   0.7500000), wk =   0.0040733
        k(  117) = (   0.4850000   0.2650000   0.7500000), wk =   0.0040733
        k(  118) = (   0.4825000   0.2675000   0.7500000), wk =   0.0040733
        k(  119) = (   0.4800000   0.2700000   0.7500000), wk =   0.0040733
        k(  120) = (   0.4775000   0.2725000   0.7500000), wk =   0.0040733
        k(  121) = (   0.4750000   0.2750000   0.7500000), wk =   0.0040733
        k(  122) = (   0.4725000   0.2775000   0.7500000), wk =   0.0040733
        k(  123) = (   0.4700000   0.2800000   0.7500000), wk =   0.0040733
        k(  124) = (   0.4675000   0.2825000   0.7500000), wk =   0.0040733
        k(  125) = (   0.4650000   0.2850000   0.7500000), wk =   0.0040733
        k(  126) = (   0.4625000   0.2875000   0.7500000), wk =   0.0040733
        k(  127) = (   0.4600000   0.2900000   0.7500000), wk =   0.0040733
        k(  128) = (   0.4575000   0.2925000   0.7500000), wk =   0.0040733
        k(  129) = (   0.4550000   0.2950000   0.7500000), wk =   0.0040733
        k(  130) = (   0.4525000   0.2975000   0.7500000), wk =   0.0040733
        k(  131) = (   0.4500000   0.3000000   0.7500000), wk =   0.0040733
        k(  132) = (   0.4475000   0.3025000   0.7500000), wk =   0.0040733
        k(  133) = (   0.4450000   0.3050000   0.7500000), wk =   0.0040733
        k(  134) = (   0.4425000   0.3075000   0.7500000), wk =   0.0040733
        k(  135) = (   0.4400000   0.3100000   0.7500000), wk =   0.0040733
        k(  136) = (   0.4375000   0.3125000   0.7500000), wk =   0.0040733
        k(  137) = (   0.4350000   0.3150000   0.7500000), wk =   0.0040733
        k(  138) = (   0.4325000   0.3175000   0.7500000), wk =   0.0040733
        k(  139) = (   0.4300000   0.3200000   0.7500000), wk =   0.0040733
        k(  140) = (   0.4275000   0.3225000   0.7500000), wk =   0.0040733
        k(  141) = (   0.4250000   0.3250000   0.7500000), wk =   0.0040733
        k(  142) = (   0.4225000   0.3275000   0.7500000), wk =   0.0040733
        k(  143) = (   0.4200000   0.3300000   0.7500000), wk =   0.0040733
        k(  144) = (   0.4175000   0.3325000   0.7500000), wk =   0.0040733
        k(  145) = (   0.4150000   0.3350000   0.7500000), wk =   0.0040733
        k(  146) = (   0.4125000   0.3375000   0.7500000), wk =   0.0040733
        k(  147) = (   0.4100000   0.3400000   0.7500000), wk =   0.0040733
        k(  148) = (   0.4075000   0.3425000   0.7500000), wk =   0.0040733
        k(  149) = (   0.4050000   0.3450000   0.7500000), wk =   0.0040733
        k(  150) = (   0.4025000   0.3475000   0.7500000), wk =   0.0040733
        k(  151) = (   0.4000000   0.3500000   0.7500000), wk =   0.0040733
        k(  152) = (   0.3975000   0.3525000   0.7500000), wk =   0.0040733
        k(  153) = (   0.3950000   0.3550000   0.7500000), wk =   0.0040733
        k(  154) = (   0.3925000   0.3575000   0.7500000), wk =   0.0040733
        k(  155) = (   0.3900000   0.3600000   0.7500000), wk =   0.0040733
        k(  156) = (   0.3875000   0.3625000   0.7500000), wk =   0.0040733
        k(  157) = (   0.3850000   0.3650000   0.7500000), wk =   0.0040733
        k(  158) = (   0.3825000   0.3675000   0.7500000), wk =   0.0040733
        k(  159) = (   0.3800000   0.3700000   0.7500000), wk =   0.0040733
        k(  160) = (   0.3775000   0.3725000   0.7500000), wk =   0.0040733
        k(  161) = (   0.3750000   0.3750000   0.7500000), wk =   0.0040733
        k(  162) = (   0.3675000   0.3675000   0.7350000), wk =   0.0040733
        k(  163) = (   0.3600000   0.3600000   0.7200000), wk =   0.0040733
        k(  164) = (   0.3525000   0.3525000   0.7050000), wk =   0.0040733
        k(  165) = (   0.3450000   0.3450000   0.6900000), wk =   0.0040733
        k(  166) = (   0.3375000   0.3375000   0.6750000), wk =   0.0040733
        k(  167) = (   0.3300000   0.3300000   0.6600000), wk =   0.0040733
        k(  168) = (   0.3225000   0.3225000   0.6450000), wk =   0.0040733
        k(  169) = (   0.3150000   0.3150000   0.6300000), wk =   0.0040733
        k(  170) = (   0.3075000   0.3075000   0.6150000), wk =   0.0040733
        k(  171) = (   0.3000000   0.3000000   0.6000000), wk =   0.0040733
        k(  172) = (   0.2925000   0.2925000   0.5850000), wk =   0.0040733
        k(  173) = (   0.2850000   0.2850000   0.5700000), wk =   0.0040733
        k(  174) = (   0.2775000   0.2775000   0.5550000), wk =   0.0040733
        k(  175) = (   0.2700000   0.2700000   0.5400000), wk =   0.0040733
        k(  176) = (   0.2625000   0.2625000   0.5250000), wk =   0.0040733
        k(  177) = (   0.2550000   0.2550000   0.5100000), wk =   0.0040733
        k(  178) = (   0.2475000   0.2475000   0.4950000), wk =   0.0040733
        k(  179) = (   0.2400000   0.2400000   0.4800000), wk =   0.0040733
        k(  180) = (   0.2325000   0.2325000   0.4650000), wk =   0.0040733
        k(  181) = (   0.2250000   0.2250000   0.4500000), wk =   0.0040733
        k(  182) = (   0.2175000   0.2175000   0.4350000), wk =   0.0040733
        k(  183) = (   0.2100000   0.2100000   0.4200000), wk =   0.0040733
        k(  184) = (   0.2025000   0.2025000   0.4050000), wk =   0.0040733
        k(  185) = (   0.1950000   0.1950000   0.3900000), wk =   0.0040733
        k(  186) = (   0.1875000   0.1875000   0.3750000), wk =   0.0040733
        k(  187) = (   0.1800000   0.1800000   0.3600000), wk =   0.0040733
        k(  188) = (   0.1725000   0.1725000   0.3450000), wk =   0.0040733
        k(  189) = (   0.1650000   0.1650000   0.3300000), wk =   0.0040733
        k(  190) = (   0.1575000   0.1575000   0.3150000), wk =   0.0040733
[...]
    27.5516  27.6254  28.4265  28.4432  32.0857  32.1680  32.3982  33.9465
    34.0642  35.1988  37.2720  37.4442  38.8209  39.5086  39.7562  40.2727

          k =-0.5542 0.5542 0.3917 (  3167 PWs)   bands (ev):

    -3.3635  -0.7719   4.4639   4.9443   8.3149   9.5546   9.9166  14.2120
    15.6849  16.3990  17.4687  18.3372  18.8332  19.8950  25.5489  26.0882
    27.4980  27.5978  28.4160  28.4354  32.0584  32.1064  32.3988  33.9601
    34.1029  35.2647  37.1418  37.3146  38.9549  39.5005  39.7874  40.3386

          k =-0.5583 0.5583 0.3833 (  3169 PWs)   bands (ev):

    -3.3510  -0.7652   4.3841   4.9237   8.3606   9.5641   9.9624  14.2469
    15.5833  16.3448  17.4490  18.4063  18.9321  19.9840  25.5270  26.0563
    27.4433  27.5734  28.4000  28.4211  32.0205  32.0520  32.4156  33.9676
    34.1380  35.3290  37.0189  37.1847  39.0959  39.4867  39.8175  40.4053

          k =-0.5625 0.5625 0.3750 (  3171 PWs)   bands (ev):

    -3.3376  -0.7582   4.3023   4.9021   8.4007   9.5806  10.0110  14.2778
    15.4872  16.2907  17.4314  18.4763  19.0282  20.0782  25.5017  26.0234
    27.3872  27.5521  28.3786  28.4001  31.9767  32.0053  32.4439  33.9685
    34.1691  35.3891  36.9066  37.0555  39.2431  39.4667  39.8471  40.4734

          k =-0.5667 0.5667 0.3667 (  3171 PWs)   bands (ev):

    -3.3233  -0.7508   4.2188   4.8796   8.4342   9.6052  10.0625  14.3024
    15.3985  16.2367  17.4164  18.5473  19.1216  20.1773  25.4722  25.9902
    27.3296  27.5335  28.3523  28.3725  31.9307  31.9669  32.4800  33.9628
    34.1956  35.4420  36.8089  36.9281  39.3954  39.4397  39.8767  40.5430

          k =-0.5708 0.5708 0.3583 (  3168 PWs)   bands (ev):

    -3.3080  -0.7431   4.1340   4.8561   8.4599   9.6387  10.1168  14.3179
    15.3195  16.1830  17.4046  18.6189  19.2121  20.2811  25.4383  25.9575
    27.2701  27.5172  28.3216  28.3386  31.8845  31.9372  32.5217  33.9499
    34.2166  35.4838  36.7305  36.8034  39.4052  39.5512  39.9075  40.6144

          k =-0.5750 0.5750 0.3500 (  3168 PWs)   bands (ev):

    -3.2919  -0.7351   4.0482   4.8319   8.4776   9.6815  10.1736  14.3211
    15.2530  16.1297  17.3966  18.6912  19.2999  20.3893  25.3995  25.9258
    27.2085  27.5026  28.2870  28.2989  31.8395  31.9162  32.5674  33.9296
    34.2311  35.5109  36.6765  36.6825  39.3627  39.7064  39.9431  40.6876

          k =-0.5792 0.5792 0.3417 (  3173 PWs)   bands (ev):

    -3.2749  -0.7269   3.9615   4.8070   8.4873   9.7334  10.2331  14.3089
    15.2013  16.0767  17.3928  18.7641  19.3851  20.5014  25.3556  25.8957
    27.1442  27.4889  28.2494  28.2538  31.7965  31.9039  32.6158  33.9013
    34.2378  35.5213  36.5662  36.6506  39.3117  39.8455  39.9987  40.7626

          k =-0.5833 0.5833 0.3333 (  3172 PWs)   bands (ev):

    -3.2569  -0.7183   3.8744   4.7814   8.4893   9.7940  10.2950  14.2794
    15.1659  16.0242  17.3939  18.8374  19.4678  20.6172  25.3065  25.8675
    27.0769  27.4753  28.2043  28.2100  31.7557  31.9001  32.6661  33.8648
    34.2353  35.5157  36.4555  36.6540  39.2519  39.9300  40.1125  40.8394

          k =-0.5875 0.5875 0.3250 (  3170 PWs)   bands (ev):

    -3.2381  -0.7096   3.7869   4.7552   8.4843   9.8625  10.3593  14.2328
    15.1461  15.9722  17.4004  18.9111  19.5483  20.7362  25.2525  25.8413
    27.0061  27.4604  28.1514  28.1700  31.7176  31.9044  32.7172  33.8196
    34.2222  35.4984  36.3512  36.6844  39.1830  39.9729  40.2710  40.9175

          k =-0.5917 0.5917 0.3167 (  3174 PWs)   bands (ev):

    -3.2183  -0.7008   3.6993   4.7286   8.4734   9.9381  10.4259  14.1710
    15.1393  15.9208  17.4129  18.9852  19.6266  20.8581  25.1938  25.8169
    26.9313  27.4429  28.0959  28.1310  31.6821  31.9163  32.7679  33.7656
    34.1974  35.4756  36.2539  36.7373  39.1048  40.0043  40.4436  40.9967

          k =-0.5958 0.5958 0.3083 (  3176 PWs)   bands (ev):

    -3.1977  -0.6918   3.6117   4.7016   8.4572  10.0197  10.4948  14.0968
    15.1421  15.8699  17.4320  19.0595  19.7030  20.9826  25.1308  25.7942
    26.8521  27.4213  28.0391  28.0948  31.6495  31.9353  32.8169  33.7026
    34.1610  35.4534  36.1644  36.8078  39.0173  40.0324  40.6221  41.0765

          k =-0.6000 0.6000 0.3000 (  3172 PWs)   bands (ev):

    -3.1762  -0.6828   3.5243   4.6741   8.4368  10.1066  10.5659  14.0134
    15.1511  15.8197  17.4581  19.1341  19.7776  21.1094  25.0641  25.7727
    26.7679  27.3940  27.9821  28.0632  31.6196  31.9606  32.8624  33.6309
    34.1142  35.4364  36.0830  36.8916  38.9206  40.0591  40.8039  41.1566

          k =-0.6042 0.6042 0.2917 (  3178 PWs)   bands (ev):

    -3.1538  -0.6738   3.4374   4.6464   8.4129  10.1979  10.6391  13.9233
    15.1631  15.7700  17.4915  19.2088  19.8505  21.2382  24.9942  25.7522
    26.6784  27.3597  27.9258  28.0378  31.5924  31.9912  32.9016  33.5510
    34.0600  35.4272  36.0097  36.9855  38.8148  40.0853  40.9877  41.2360

          k =-0.6083 0.6083 0.2833 (  3174 PWs)   bands (ev):

    -3.1305  -0.6649   3.3510   4.6185   8.3861  10.2929  10.7143  13.8284
    15.1759  15.7211  17.5327  19.2837  19.9218  21.3687  24.9215  25.7322
    26.5833  27.3178  27.8712  28.0197  31.5679  32.0263  32.9311  33.4635
    34.0031  35.4266  35.9447  37.0867  38.7005  40.1112  41.1725  41.3143

          k =-0.6125 0.6125 0.2750 (  3174 PWs)   bands (ev):

    -3.1064  -0.6561   3.2653   4.5904   8.3570  10.3911  10.7915  13.7303
    15.1880  15.6728  17.5817  19.3586  19.9916  21.5007  24.8465  25.7123
    26.4825  27.2681  27.8189  28.0093  31.5460  32.0644  32.9463  33.3700
    33.9499  35.4344  35.8875  37.1934  38.5785  40.1371  41.3575  41.3903

          k =-0.6167 0.6167 0.2667 (  3176 PWs)   bands (ev):

    -3.0814  -0.6476   3.1805   4.5622   8.3261  10.4920  10.8706  13.6300
    15.1980  15.6252  17.6387  19.4335  20.0600  21.6340  24.7696  25.6920
    26.3761  27.2114  27.7697  28.0066  31.5266  32.1036  32.9419  33.2723
    33.9075  35.4497  35.8379  37.3034  38.4500  40.1631  41.4632  41.5414

          k =-0.6208 0.6208 0.2583 (  3172 PWs)   bands (ev):

    -3.0555  -0.6393   3.0967   4.5339   8.2938  10.5950  10.9515  13.5284
    15.2053  15.5784  17.7035  19.5084  20.1269  21.7685  24.6911  25.6708
    26.2641  27.1489  27.7238  28.0107  31.5097  32.1414  32.9135  33.1733
    33.8820  35.4715  35.7953  37.4140  38.3175  40.1894  41.5318  41.7225

          k =-0.6250 0.6250 0.2500 (  3172 PWs)   bands (ev):

    -3.0288  -0.6314   3.0141   4.5056   8.2605  10.6999  11.0342  13.4260
    15.2094  15.5323  17.7761  19.5832  20.1925  21.9039  24.6114  25.6482
    26.1467  27.0818  27.6816  28.0210  31.4952  32.1736  32.8594  33.0776
    33.8767  35.4985  35.7592  37.5201  38.1863  40.2158  41.5947  41.8981

          k =-0.6292 0.6292 0.2417 (  3172 PWs)   bands (ev):

    -3.0013  -0.6240   2.9329   4.4774   8.2263  10.8061  11.1186  13.3234
    15.2101  15.4870  17.8562  19.6579  20.2567  22.0400  24.5307  25.6236
    26.0244  27.0117  27.6432  28.0365  31.4828  32.1935  32.7814  32.9922
    33.8909  35.5297  35.7288  37.6064  38.0718  40.2426  41.6508  42.0638

          k =-0.6333 0.6333 0.2333 (  3176 PWs)   bands (ev):

    -2.9729  -0.6172   2.8531   4.4493   8.1916  10.9135  11.2047  13.2210
    15.2074  15.4424  17.9435  19.7323  20.3195  22.1767  24.4493  25.5964
    25.8974  26.9401  27.6087  28.0566  31.4727  32.1920  32.6838  32.9267
    33.9215  35.5642  35.7035  37.6293  38.0182  40.2697  41.6987  42.2116

          k =-0.6375 0.6375 0.2250 (  3179 PWs)   bands (ev):

    -2.9438  -0.6111   2.7751   4.4212   8.1565  11.0215  11.2924  13.1194
    15.2014  15.3986  18.0375  19.8065  20.3808  22.3138  24.3675  25.5660
    25.7662  26.8685  27.5780  28.0805  31.4645  32.1593  32.5713  32.8910
    33.9646  35.6008  35.6829  37.5517  38.0634  40.2972  41.7377  42.3290

          k =-0.6417 0.6417 0.2167 (  3181 PWs)   bands (ev):

    -2.9138  -0.6058   2.6988   4.3934   8.1212  11.1298  11.3817  13.0188
    15.1922  15.3557  18.1380  19.8805  20.4407  22.4511  24.2856  25.5315
    25.6312  26.7982  27.5511  28.1077  31.4583  32.0920  32.4480  32.8893
    34.0167  35.6385  35.6663  37.4169  38.1650  40.3251  41.7674  42.4021

          k =-0.6458 0.6458 0.2083 (  3177 PWs)   bands (ev):

    -2.8830  -0.6014   2.6246   4.3657   8.0859  11.2377  11.4724  12.9200
    15.1801  15.3136  18.2445  19.9541  20.4991  22.5884  24.2038  25.4923
    25.4929  26.7306  27.5279  28.1379  31.4539  31.9949  32.3172  32.9169
    34.0750  35.6532  35.6762  37.2619  38.2874  40.3534  41.7879  42.4269

          k =-0.6500 0.6500 0.2000 (  3175 PWs)   bands (ev):

    -2.8514  -0.5981   2.5526   4.3383   8.0507  11.3445  11.5646  12.8237
    15.1653  15.2724  18.3566  20.0272  20.5560  22.7253  24.1225  25.3516
    25.4476  26.6666  27.5083  28.1705  31.4509  31.8762  32.1813  32.9660
    34.1377  35.6433  35.7118  37.1002  38.4191  40.3821  41.7999  42.4142

          k =-0.6542 0.6542 0.1917 (  3173 PWs)   bands (ev):

    -2.8191  -0.5959   2.4830   4.3112   8.0157  11.4490  11.6581  12.7311
    15.1481  15.2320  18.4739  20.0999  20.6112  22.8614  24.0422  25.2077
    25.3970  26.6074  27.4922  28.2055  31.4490  31.7430  32.0424  33.0297
    34.2033  35.6359  35.7426  36.9387  38.5560  40.4112  41.8042  42.3781

          k =-0.6583 0.6583 0.1833 (  3174 PWs)   bands (ev):

    -2.7861  -0.5952   2.4159   4.2844   7.9810  11.5493  11.7530  12.6440
    15.1287  15.1926  18.5960  20.1721  20.6648  22.9957  23.9637  25.0615
    25.3401  26.5537  27.4796  28.2425  31.4474  31.5999  31.9026  33.1036
    34.2706  35.6309  35.7641  36.7841  38.6966  40.4408  41.8022  42.3287

          k =-0.6625 0.6625 0.1750 (  3174 PWs)   bands (ev):

    -2.7523  -0.5959   2.3516   4.2580   7.9467  11.6422  11.8491  12.5657
    15.1073  15.1541  18.7225  20.2438  20.7166  23.1267  23.8887  24.9134
    25.2766  26.5059  27.4703  28.2813  31.4436  31.4501  31.7650  33.1849
    34.3388  35.6279  35.7686  36.6452  38.8398  40.4708  41.7950  42.2717

          k =-0.6667 0.6667 0.1667 (  3168 PWs)   bands (ev):

    -2.7178  -0.5982   2.2902   4.2319   7.9128  11.7221  11.9464  12.5017
    15.0842  15.1166  18.8532  20.3148  20.7665  23.2506  23.8209  24.7636
    25.2068  26.4643  27.4643  28.3218  31.2955  31.4297  31.6386  33.2718
    34.4070  35.6267  35.7446  36.5344  38.9851  40.5013  41.7837  42.2105

          k =-0.6708 0.6708 0.1583 (  3180 PWs)   bands (ev):

    -2.6827  -0.6023   2.2320   4.2062   7.8795  11.7801  12.0447  12.4610
    15.0597  15.0802  18.9876  20.3851  20.8146  23.3572  23.7703  24.6125
    25.1310  26.4287  27.4615  28.3638  31.1372  31.3773  31.5521  33.3632
    34.4742  35.6269  35.6814  36.4635  39.1322  40.5321  41.7690  42.1469

          k =-0.6750 0.6750 0.1500 (  3180 PWs)   bands (ev):

    -2.6469  -0.6083   2.1771   4.1809   7.8467  11.8058  12.1442  12.4540
    15.0338  15.0448  19.1255  20.4546  20.8606  23.4212  23.7621  24.4602
    25.0499  26.3988  27.4618  28.4072  30.9763  31.2683  31.5243  33.4583
    34.5391  35.5777  35.6283  36.4351  39.2807  40.5635  41.7519  42.0823

          k =-0.6792 0.6792 0.1417 (  3180 PWs)   bands (ev):

    -2.6106  -0.6162   2.1257   4.1561   7.8146  11.7942  12.2445  12.4854
    15.0068  15.0105  19.2666  20.5233  20.9045  23.4189  23.8199  24.3070
    24.9644  26.3742  27.4653  28.4519  30.8133  31.1356  31.5224  33.5567
    34.5994  35.4445  35.6308  36.4407  39.4303  40.5952  41.7328  42.0172

          k =-0.6833 0.6833 0.1333 (  3180 PWs)   bands (ev):

    -2.5737  -0.6264   2.0779   4.1318   7.7831  11.7517  12.3457  12.5492
    14.9774  14.9789  19.4106  20.5912  20.9462  23.3717  23.9218  24.1531
    24.8755  26.3543  27.4719  28.4978  30.6488  30.9971  31.5290  33.6579
    34.6501  35.2983  35.6342  36.4686  39.5808  40.6273  41.7123  41.9524

          k =-0.6875 0.6875 0.1250 (  3180 PWs)   bands (ev):

    -2.5363  -0.6387   2.0339   4.1079   7.7524  11.6887  12.4477  12.6347
    14.9456  14.9501  19.5572  20.6580  20.9857  23.3063  23.9987  24.0400
    24.7851  26.3384  27.4816  28.5448  30.4831  30.8576  31.5397  33.7616
    34.6781  35.1607  35.6383  36.5107  39.7318  40.6598  41.6909  41.8882

          k =-0.6917 0.6917 0.1167 (  3180 PWs)   bands (ev):

    -2.4985  -0.6533   1.9939   4.0846   7.7225  11.6138  12.5502  12.7334
    14.9153  14.9207  19.7060  20.7238  21.0229  23.2338  23.8439  24.1614
    24.6960  26.3260  27.4943  28.5929  30.3166  30.7189  31.5530  33.8676
    34.6526  35.0677  35.6430  36.5617  39.8831  40.6927  41.6688  41.8249

          k =-0.6958 0.6958 0.1083 (  3176 PWs)   bands (ev):

    -2.4603  -0.6702   1.9579   4.0618   7.6933  11.5319  12.6532  12.8403
    14.8864  14.8907  19.8566  20.7885  21.0579  23.1580  23.6891  24.2740
    24.6168  26.3164  27.5100  28.6418  30.1495  30.5818  31.5682  33.9758
    34.5486  35.0471  35.6481  36.6187  40.0342  40.7259  41.6465  41.7628

          k =-0.7000 0.7000 0.1000 (  3180 PWs)   bands (ev):

    -2.4218  -0.6893   1.9260   4.0396   7.6649  11.4461  12.7564  12.9524
    14.8592  14.8603  20.0087  20.8520  21.0907  23.0806  23.5342  24.3423
    24.5820  26.3092  27.5288  28.6917  29.9820  30.4470  31.5850  34.0859
    34.3922  35.0750  35.6536  36.6797  40.1846  40.7594  41.6242  41.7021

          k =-0.7042 0.7042 0.0917 (  3180 PWs)   bands (ev):

    -2.3832  -0.7107   1.8983   4.0179   7.6374  11.3580  12.8596  13.0680
    14.8295  14.8339  20.1615  20.9141  21.1218  23.0023  23.3796  24.3143
    24.6434  26.3038  27.5506  28.7423  29.8143  30.3151  31.6030  34.1978
    34.2136  35.1224  35.6593  36.7435  40.3339  40.7931  41.6023  41.6431

          k =-0.7083 0.7083 0.0833 (  3184 PWs)   bands (ev):

    -2.3445  -0.7341   1.8748   3.9969   7.6108  11.2687  12.9626  13.1859
    14.7985  14.8107  20.3141  20.9746  21.1515  22.9236  23.2254  24.2356
    24.7554  26.2997  27.5755  28.7936  29.6464  30.1865  31.6220  34.0258
    34.3115  35.1774  35.6651  36.8093  40.4814  40.8269  41.5812  41.5860

          k =-0.7125 0.7125 0.0750 (  3187 PWs)   bands (ev):

    -2.3059  -0.7595   1.8555   3.9764   7.5850  11.1788  13.0650  13.3056
    14.7674  14.7899  20.4648  21.0336  21.1813  22.8445  23.0719  24.1444
    24.8802  26.2964  27.6033  28.8454  29.4787  30.0618  31.6416  33.8341
    34.4269  35.2353  35.6709  36.8763  40.6262  40.8608  41.5309  41.5613

          k =-0.7167 0.7167 0.0667 (  3189 PWs)   bands (ev):

    -2.2676  -0.7866   1.8403   3.9565   7.5602  11.0887  13.1664  13.4264
    14.7364  14.7721  20.6109  21.0905  21.2134  22.7652  22.9194  24.0501
    25.0084  26.2935  27.6342  28.8978  29.3112  29.9415  31.6616  33.6414
    34.5439  35.2942  35.6766  36.9441  40.7671  40.8946  41.4782  41.5430

          k =-0.7208 0.7208 0.0583 (  3191 PWs)   bands (ev):

    -2.2298  -0.8150   1.8292   3.9373   7.5363  10.9988  13.2661  13.5481
    14.7055  14.7577  20.7470  21.1452  21.2528  22.6858  22.7683  23.9560
    25.1373  26.2905  27.6680  28.9504  29.1439  29.8261  31.6812  33.4496
    34.6623  35.3532  35.6821  37.0122  40.9025  40.9279  41.4283  41.5269

          k =-0.7250 0.7250 0.0500 (  3191 PWs)   bands (ev):

    -2.1929  -0.8445   1.8220   3.9187   7.5133  10.9091  13.3634  13.6702
    14.6750  14.7474  20.8640  21.1970  21.3082  22.6063  22.6191  23.8633
    25.2657  26.2870  27.7049  28.9770  29.0033  29.7163  31.6996  33.2603
    34.7822  35.4115  35.6874  37.0801  40.9604  41.0304  41.3815  41.5135

          k =-0.7292 0.7292 0.0417 (  3194 PWs)   bands (ev):

    -2.1571  -0.8745   1.8187   3.9007   7.4913  10.8200  13.4575  13.7923
    14.6452  14.7421  20.9505  21.2452  21.3903  22.4729  22.5267  23.7731
    25.3928  26.2827  27.7447  28.8106  29.0560  29.6129  31.7157  33.0755
    34.9035  35.4689  35.6924  37.1475  40.9913  41.1478  41.3389  41.5039

          k =-0.7333 0.7333 0.0333 (  3194 PWs)   bands (ev):

    -2.1229  -0.9045   1.8191   3.8835   7.4702  10.7315  13.5471  13.9137
    14.6166  14.7430  21.0025  21.2884  21.5027  22.3308  22.4472  23.6862
    25.5181  26.2770  27.7875  28.6448  29.1081  29.5168  31.7271  32.8978
    35.0262  35.5250  35.6969  37.2140  41.0191  41.2501  41.3019  41.4994

          k =-0.7375 0.7375 0.0250 (  3196 PWs)   bands (ev):

    -2.0908  -0.9338   1.8231   3.8669   7.4501  10.6437  13.6309  14.0332
    14.5905  14.7513  21.0265  21.3241  21.6376  22.1955  22.3683  23.6032
    25.6408  26.2699  27.8333  28.4796  29.1584  29.4299  31.7305  32.7311
    35.1501  35.5797  35.7010  37.2791  41.0411  41.2733  41.3313  41.5022

          k =-0.7417 0.7417 0.0167 (  3200 PWs)   bands (ev):

    -2.0615  -0.9616   1.8304   3.8509   7.4311  10.5567  13.7074  14.1482
    14.5693  14.7687  21.0313  21.3480  21.7848  22.0713  22.2911  23.5246
    25.7602  26.2612  27.8820  28.3150  29.2023  29.3572  31.7202  32.5815
    35.2753  35.6327  35.7046  37.3427  41.0534  41.2570  41.3857  41.5128

          k =-0.7458 0.7458 0.0083 (  3200 PWs)   bands (ev):

    -2.0357  -0.9870   1.8411   3.8357   7.4130  10.4706  13.7750  14.2518
    14.5599  14.7965  21.0225  21.3528  21.9331  21.9656  22.2203  23.4514
    25.8748  26.2513  27.9337  28.1513  29.2165  29.3226  31.6881  32.4576
    35.4016  35.6838  35.7075  37.4044  41.0524  41.2568  41.4163  41.5228

          k =-0.7500 0.7500 0.0000 (  3200 PWs)   bands (ev):

    -2.0143  -1.0089   1.8548   3.8212   7.3959  10.3854  13.8325  14.3270
    14.5793  14.8361  21.0029  21.3279  21.8889  22.0417  22.1932  23.3842
    25.9817  26.2427  27.9873  27.9894  29.1796  29.3479  31.6260  32.3681
    35.5292  35.7098  35.7328  37.4640  41.0394  41.2713  41.4338  41.5165

     Writing all to output data dir ./work/Si.save/
 
     init_run     :      0.02s CPU      0.05s WALL (       1 calls)
     electrons    :     50.32s CPU     53.98s WALL (       1 calls)

     Called by init_run:
     wfcinit      :      0.00s CPU      0.00s WALL (       1 calls)
     wfcinit:wfcr :      1.53s CPU      1.66s WALL (     491 calls)
     potinit      :      0.00s CPU      0.00s WALL (       1 calls)
     hinit0       :      0.00s CPU      0.04s WALL (       1 calls)

     Called by electrons:
     c_bands      :     50.32s CPU     53.97s WALL (       1 calls)
     v_of_rho     :      0.00s CPU      0.00s WALL (       1 calls)
     v_h          :      0.00s CPU      0.00s WALL (       1 calls)
     v_xc         :      0.00s CPU      0.00s WALL (       1 calls)

     Called by c_bands:
     init_us_2    :      0.01s CPU      0.01s WALL (     491 calls)
     init_us_2:cp :      0.01s CPU      0.01s WALL (     491 calls)
     cegterg      :     48.64s CPU     52.16s WALL (    1062 calls)

     Called by sum_band:

     Called by *egterg:
     cdiaghg      :      9.57s CPU     10.20s WALL (   17922 calls)
     cegterg:over :      2.49s CPU      2.69s WALL (   17431 calls)
     cegterg:upda :      0.71s CPU      0.76s WALL (   17431 calls)
     cegterg:last :      1.35s CPU      1.45s WALL (   11087 calls)
     h_psi        :     34.26s CPU     36.80s WALL (   18984 calls)
     g_psi        :      0.11s CPU      0.12s WALL (   17431 calls)

     Called by h_psi:
     h_psi:calbec :      0.43s CPU      0.46s WALL (   18984 calls)
     vloc_psi     :     33.57s CPU     36.05s WALL (   18984 calls)
     add_vuspsi   :      0.18s CPU      0.20s WALL (   18984 calls)

     General routines
     calbec       :      0.41s CPU      0.44s WALL (   18984 calls)
     fft          :      0.00s CPU      0.03s WALL (       3 calls)
     fftw         :     31.61s CPU     33.96s WALL (  751418 calls)
     davcio       :      0.05s CPU      0.06s WALL (     982 calls)
 
     Parallel routines
 
     PWSCF        :     51.00s CPU     55.01s WALL

 
   This run was terminated on:  16:11:58  31May2023            

=------------------------------------------------------------------------------=
   JOB DONE.
=------------------------------------------------------------------------------=
