
     Program PWSCF v.7.1 starts on 31May2023 at 16:10:51 

     This program is part of the open-source Quantum ESPRESSO suite
     for quantum simulation of materials; please cite
         "P. Giannozzi et al., J. Phys.:Condens. Matter 21 395502 (2009);
         "P. Giannozzi et al., J. Phys.:Condens. Matter 29 465901 (2017);
         "P. Giannozzi et al., J. Chem. Phys. 152 154105 (2020);
          URL http://www.quantum-espresso.org", 
     in publications or presentations arising from this work. More details at
     http://www.quantum-espresso.org/quote

     Parallel version (MPI), running on    20 processors

     MPI processes distributed on     1 nodes
     60889 MiB available memory on the printing compute node when the environment starts
 
     Waiting for input...
     Reading input from standard input

     Current dimensions of program PWSCF are:
     Max number of different atomic species (ntypx) = 10
     Max number of k-points (npk) =  40000
     Max angular momentum in pseudopotentials (lmaxx) =  4
 
     R & G space division:  proc/nbgrp/npool/nimage =      20
     Subspace diagonalization in iterative solution of the eigenvalue problem:
     a serial algorithm will be used

 
     Parallelization info
     --------------------
     sticks:   dense  smooth     PW     G-vecs:    dense   smooth      PW
     Min          57      57     17                 1275     1275     213
     Max          58      58     18                 1277     1277     216
     Sum        1147    1147    349                25509    25509    4279
 
     Using Slab Decomposition
 


     bravais-lattice index     =            2
     lattice parameter (alat)  =      10.1696  a.u.
     unit-cell volume          =     262.9383 (a.u.)^3
     number of atoms/cell      =            2
     number of atomic types    =            1
     number of electrons       =         8.00
     number of Kohn-Sham states=           32
     kinetic-energy cutoff     =      80.0000  Ry
     charge density cutoff     =     320.0000  Ry
     scf convergence threshold =      1.0E-10
     mixing beta               =       0.1500
     number of iterations used =            8  plain     mixing
     Exchange-correlation= SLA-PZ-NOGX-NOGC
                           (   1   1   0   0   0   0   0)

     celldm(1)=  10.169617  celldm(2)=   0.000000  celldm(3)=   0.000000
     celldm(4)=   0.000000  celldm(5)=   0.000000  celldm(6)=   0.000000

     crystal axes: (cart. coord. in units of alat)
               a(1) = (  -0.500000   0.000000   0.500000 )  
               a(2) = (   0.000000   0.500000   0.500000 )  
               a(3) = (  -0.500000   0.500000   0.000000 )  

     reciprocal axes: (cart. coord. in units 2 pi/alat)
               b(1) = ( -1.000000 -1.000000  1.000000 )  
               b(2) = (  1.000000  1.000000  1.000000 )  
               b(3) = ( -1.000000  1.000000 -1.000000 )  


     PseudoPot. # 1 for Si read from file:
     ../pseudo/Si.pz-hgh.UPF
     MD5 check sum: cb84f9316d534d44e00c22e249e735ab
     Pseudo is Norm-conserving, Zval =  4.0
     Generated in analytical, separable form
     Using radial grid of 1141 points,  3 beta functions with: 
                l(1) =   0
                l(2) =   0
                l(3) =   1

     atomic species   valence    mass     pseudopotential
        Si             4.00    28.08550     Si( 1.00)

     48 Sym. Ops., with inversion, found (24 have fractional translation)



   Cartesian axes

     site n.     atom                  positions (alat units)
         1           Si  tau(   1) = (   0.0000000   0.0000000   0.0000000  )
         2           Si  tau(   2) = (  -0.7500000   0.7500000   0.7500000  )

     number of k points=    60
                       cart. coord. in units 2pi/alat
        k(    1) = (  -0.0625000   0.0625000   0.0625000), wk =   0.0078125
        k(    2) = (  -0.1875000   0.1875000  -0.0625000), wk =   0.0234375
        k(    3) = (  -0.3125000   0.3125000  -0.1875000), wk =   0.0234375
        k(    4) = (  -0.4375000   0.4375000  -0.3125000), wk =   0.0234375
        k(    5) = (   0.4375000  -0.4375000   0.5625000), wk =   0.0234375
        k(    6) = (   0.3125000  -0.3125000   0.4375000), wk =   0.0234375
        k(    7) = (   0.1875000  -0.1875000   0.3125000), wk =   0.0234375
        k(    8) = (   0.0625000  -0.0625000   0.1875000), wk =   0.0234375
        k(    9) = (  -0.0625000   0.3125000   0.0625000), wk =   0.0234375
        k(   10) = (  -0.1875000   0.4375000  -0.0625000), wk =   0.0468750
        k(   11) = (  -0.3125000   0.5625000  -0.1875000), wk =   0.0468750
        k(   12) = (   0.5625000  -0.3125000   0.6875000), wk =   0.0468750
        k(   13) = (   0.4375000  -0.1875000   0.5625000), wk =   0.0468750
        k(   14) = (   0.3125000  -0.0625000   0.4375000), wk =   0.0468750
        k(   15) = (   0.1875000   0.0625000   0.3125000), wk =   0.0468750
        k(   16) = (  -0.0625000   0.5625000   0.0625000), wk =   0.0234375
        k(   17) = (  -0.1875000   0.6875000  -0.0625000), wk =   0.0468750
        k(   18) = (   0.6875000  -0.1875000   0.8125000), wk =   0.0468750
        k(   19) = (   0.5625000  -0.0625000   0.6875000), wk =   0.0468750
        k(   20) = (   0.4375000   0.0625000   0.5625000), wk =   0.0468750
        k(   21) = (   0.3125000   0.1875000   0.4375000), wk =   0.0468750
        k(   22) = (  -0.0625000   0.8125000   0.0625000), wk =   0.0234375
        k(   23) = (   0.8125000  -0.0625000   0.9375000), wk =   0.0468750
        k(   24) = (   0.6875000   0.0625000   0.8125000), wk =   0.0468750
        k(   25) = (   0.5625000   0.1875000   0.6875000), wk =   0.0468750
        k(   26) = (   0.4375000   0.3125000   0.5625000), wk =   0.0468750
        k(   27) = (  -0.0625000  -0.9375000   0.0625000), wk =   0.0234375
        k(   28) = (  -0.1875000  -0.8125000  -0.0625000), wk =   0.0468750
        k(   29) = (  -0.3125000  -0.6875000  -0.1875000), wk =   0.0468750
        k(   30) = (  -0.0625000  -0.6875000   0.0625000), wk =   0.0234375
        k(   31) = (  -0.1875000  -0.5625000  -0.0625000), wk =   0.0468750
        k(   32) = (  -0.0625000  -0.4375000   0.0625000), wk =   0.0234375
        k(   33) = (  -0.1875000   0.1875000   0.1875000), wk =   0.0078125
        k(   34) = (  -0.3125000   0.3125000   0.0625000), wk =   0.0234375
        k(   35) = (  -0.4375000   0.4375000  -0.0625000), wk =   0.0234375
        k(   36) = (   0.4375000  -0.4375000   0.8125000), wk =   0.0234375
        k(   37) = (   0.3125000  -0.3125000   0.6875000), wk =   0.0234375
        k(   38) = (   0.1875000  -0.1875000   0.5625000), wk =   0.0234375
        k(   39) = (  -0.1875000   0.4375000   0.1875000), wk =   0.0234375
        k(   40) = (  -0.3125000   0.5625000   0.0625000), wk =   0.0468750
        k(   41) = (   0.5625000  -0.3125000   0.9375000), wk =   0.0468750
        k(   42) = (   0.4375000  -0.1875000   0.8125000), wk =   0.0468750
        k(   43) = (   0.3125000  -0.0625000   0.6875000), wk =   0.0468750
        k(   44) = (  -0.1875000   0.6875000   0.1875000), wk =   0.0234375
        k(   45) = (   0.6875000  -0.1875000   1.0625000), wk =   0.0468750
        k(   46) = (   0.5625000  -0.0625000   0.9375000), wk =   0.0468750
        k(   47) = (   0.4375000   0.0625000   0.8125000), wk =   0.0468750
        k(   48) = (  -0.1875000  -1.0625000   0.1875000), wk =   0.0234375
        k(   49) = (  -0.3125000  -0.9375000   0.0625000), wk =   0.0468750
        k(   50) = (  -0.1875000  -0.8125000   0.1875000), wk =   0.0234375
        k(   51) = (  -0.3125000   0.3125000   0.3125000), wk =   0.0078125
        k(   52) = (  -0.4375000   0.4375000   0.1875000), wk =   0.0234375
        k(   53) = (   0.4375000  -0.4375000   1.0625000), wk =   0.0234375
        k(   54) = (   0.3125000  -0.3125000   0.9375000), wk =   0.0234375
        k(   55) = (  -0.3125000   0.5625000   0.3125000), wk =   0.0234375
        k(   56) = (   0.5625000  -0.3125000   1.1875000), wk =   0.0468750
        k(   57) = (   0.4375000  -0.1875000   1.0625000), wk =   0.0468750
        k(   58) = (  -0.3125000  -1.1875000   0.3125000), wk =   0.0234375
        k(   59) = (  -0.4375000   0.4375000   0.4375000), wk =   0.0078125
        k(   60) = (   0.4375000  -0.4375000   1.3125000), wk =   0.0234375

     Dense  grid:    25509 G-vectors     FFT dimensions: (  48,  48,  48)

     Estimated max dynamical RAM per process >       6.48 MB

     Estimated total dynamical RAM >     129.65 MB

     Initial potential from superposition of free atoms

     Starting from uniform charge
     Starting wfcs are random

     total cpu time spent up to now is        0.3 secs

     Self-consistent Calculation

     iteration #  1     ecut=    80.00 Ry     beta= 0.15
     Davidson diagonalization with overlap
     ethr =  1.00E-02,  avg # of iterations =  7.8

     total cpu time spent up to now is        2.2 secs

     total energy              =     -16.44053129 Ry
     estimated scf accuracy    <       1.86464473 Ry

     iteration #  2     ecut=    80.00 Ry     beta= 0.15
     Davidson diagonalization with overlap
     ethr =  1.00E-02,  avg # of iterations =  1.0

     total cpu time spent up to now is        2.9 secs

     total energy              =     -15.71579243 Ry
     estimated scf accuracy    <       1.22939333 Ry

     iteration #  3     ecut=    80.00 Ry     beta= 0.15
     Davidson diagonalization with overlap
     ethr =  1.00E-02,  avg # of iterations =  2.9

     total cpu time spent up to now is        3.7 secs

     total energy              =     -15.92885780 Ry
     estimated scf accuracy    <       0.01358544 Ry

     iteration #  4     ecut=    80.00 Ry     beta= 0.15
     Davidson diagonalization with overlap
     ethr =  1.70E-04,  avg # of iterations =  4.8

     negative rho (up, down):  2.476E-05 0.000E+00

     total cpu time spent up to now is        4.8 secs

     total energy              =     -15.84762483 Ry
     estimated scf accuracy    <       0.21382243 Ry

     iteration #  5     ecut=    80.00 Ry     beta= 0.15
     Davidson diagonalization with overlap
     ethr =  1.70E-04,  avg # of iterations =  4.9

     negative rho (up, down):  5.237E-06 0.000E+00

     total cpu time spent up to now is        5.8 secs

     total energy              =     -15.87537945 Ry
     estimated scf accuracy    <       0.00065464 Ry

     iteration #  6     ecut=    80.00 Ry     beta= 0.15
     Davidson diagonalization with overlap
     ethr =  8.18E-06,  avg # of iterations =  3.8

     negative rho (up, down):  1.925E-07 0.000E+00

     total cpu time spent up to now is        6.5 secs

     total energy              =     -15.87526982 Ry
     estimated scf accuracy    <       0.00030237 Ry

     iteration #  7     ecut=    80.00 Ry     beta= 0.15
     Davidson diagonalization with overlap
     ethr =  3.78E-06,  avg # of iterations =  1.7

     total cpu time spent up to now is        7.1 secs

     total energy              =     -15.87527259 Ry
     estimated scf accuracy    <       0.00002965 Ry

     iteration #  8     ecut=    80.00 Ry     beta= 0.15
     Davidson diagonalization with overlap
     ethr =  3.71E-07,  avg # of iterations =  3.8

     total cpu time spent up to now is        7.9 secs

     total energy              =     -15.87527417 Ry
     estimated scf accuracy    <       0.00000116 Ry

     iteration #  9     ecut=    80.00 Ry     beta= 0.15
     Davidson diagonalization with overlap
     ethr =  1.45E-08,  avg # of iterations =  4.3

     total cpu time spent up to now is        8.7 secs

     total energy              =     -15.87527432 Ry
     estimated scf accuracy    <          8.2E-09 Ry

     iteration # 10     ecut=    80.00 Ry     beta= 0.15
     Davidson diagonalization with overlap
     c_bands:  1 eigenvalues not converged
     ethr =  1.03E-10,  avg # of iterations =  6.0

     total cpu time spent up to now is        9.7 secs

     total energy              =     -15.87527433 Ry
     estimated scf accuracy    <          1.9E-10 Ry

     iteration # 11     ecut=    80.00 Ry     beta= 0.15
     Davidson diagonalization with overlap
     ethr =  2.32E-12,  avg # of iterations =  4.9

     total cpu time spent up to now is       10.5 secs

     End of self-consistent calculation

          k =-0.0625 0.0625 0.0625 (  3158 PWs)   bands (ev):

    -5.7941   5.7627   6.2128   6.2128   8.9319   8.9943   8.9943  10.1101
    13.9094  13.9094  14.3012  17.3267  17.8857  17.8857  21.9101  28.8266
    28.9076  28.9076  30.3213  30.3213  32.0538  32.0538  32.2977  36.1253
    36.7047  36.7047  40.3802  40.9928  40.9928  43.4812  44.5023  44.5023

          k =-0.1875 0.1875-0.0625 (  3183 PWs)   bands (ev):

    -5.5167   4.2357   5.3696   6.0972   9.0145   9.2430   9.5519  11.5128
    13.0385  13.8694  15.2907  17.1286  18.5180  19.7075  23.4614  25.8023
    27.5305  27.5868  29.4137  29.9434  32.5116  32.6386  33.8986  36.8187
    37.9661  38.2790  39.2957  39.5065  40.8264  41.8738  43.0871  43.8475

          k =-0.3125 0.3125-0.1875 (  3182 PWs)   bands (ev):

    -4.8453   1.9431   4.8736   5.6231   8.5654   9.7264  10.0126  12.9404
    13.0857  14.8853  15.3957  18.5452  20.6608  21.9700  22.8361  24.3109
    24.6271  26.9817  29.7441  30.0215  32.7920  32.8276  33.6824  35.8451
    36.8409  37.9329  37.9687  38.8329  39.7707  40.2905  41.3317  44.2527

          k =-0.4375 0.4375-0.3125 (  3185 PWs)   bands (ev):

    -3.9006  -0.0139   4.6580   5.2045   8.2458   9.7544   9.7587  14.0669
    14.6370  15.4309  17.0518  18.6892  20.3966  20.6635  23.1678  24.8367
    26.0882  29.2456  29.6666  29.6955  30.3557  32.1559  33.4652  34.4303
    34.4824  36.1964  37.6238  37.9983  38.7327  39.6373  40.3457  40.6890

          k = 0.4375-0.4375 0.5625 (  3176 PWs)   bands (ev):

    -3.4216  -0.7523   4.7146   4.9768   8.1625   9.5378   9.8265  14.0864
    15.7270  16.8956  17.6917  17.8104  18.4747  19.8638  25.2243  26.5626
    27.1087  27.9510  28.2752  28.8000  31.9971  32.2214  32.5735  33.8433
    34.1033  35.1411  37.6381  37.6407  38.5480  39.4615  39.7821  40.1504

          k = 0.3125-0.3125 0.4375 (  3173 PWs)   bands (ev):

    -4.2260   0.5675   4.9925   5.0112   8.3271   9.5674  10.1106  13.2423
    14.7752  15.2878  15.9745  19.9595  19.9721  21.3208  23.1580  23.9050
    24.9696  28.9881  29.6982  30.1665  30.8284  32.1801  33.5132  35.2806
    35.5666  36.3057  37.8208  38.1017  38.6939  39.8257  40.7569  41.6281

          k = 0.1875-0.1875 0.3125 (  3179 PWs)   bands (ev):

    -5.1089   2.6959   5.2714   5.4877   8.6739   9.4848  10.2087  12.0691
    13.6581  14.0243  15.5261  17.7622  20.1520  21.0873  24.0582  24.3372
    25.1256  26.7511  29.5872  30.0194  32.4904  33.1078  34.4695  35.7771
    37.1955  38.6379  38.6938  39.8052  39.8901  40.4756  41.5549  43.4696

          k = 0.0625-0.0625 0.1875 (  3181 PWs)   bands (ev):

    -5.6547   5.0074   5.7663   5.9424   8.6834   9.3358   9.5952  10.8077
    13.1596  14.0902  14.8596  17.3405  18.1125  18.6971  22.8198  27.3346
    27.4629  28.9750  29.5107  29.7537  32.3539  32.6481  33.0980  36.7731
    37.5315  38.1539  39.2249  40.0970  40.6373  42.7247  43.9691  44.2050

          k =-0.0625 0.3125 0.0625 (  3182 PWs)   bands (ev):

    -5.3772   4.1148   5.1870   5.2859   8.2289  10.1270  10.4769  10.9886
    12.9873  14.4511  15.8026  17.7643  18.5594  19.4721  24.4202  25.6065
    25.8418  27.9467  28.4536  29.6155  32.5654  33.2196  33.8030  37.6784
    38.2798  38.5821  38.9658  39.4209  39.8395  40.4180  42.7511  43.6953

          k =-0.1875 0.4375-0.0625 (  3181 PWs)   bands (ev):

    -4.8336   2.5805   4.1753   5.0189   8.3968  10.2343  10.6956  11.2771
    14.0608  15.3683  16.8072  18.2387  19.6879  21.4933  22.5714  24.3776
    26.2528  26.8654  28.0796  29.3387  31.9790  33.4762  34.5011  35.7305
    36.3789  37.8750  38.7102  38.9009  40.3062  41.1235  41.7591  42.2448

          k =-0.3125 0.5625-0.1875 (  3177 PWs)   bands (ev):

    -3.9531   0.6470   3.6784   4.5874   8.5932  10.0935  11.3029  11.4839
    15.4984  16.2788  17.6114  18.6034  20.2059  21.5931  23.1614  24.4993
    25.3472  27.4098  28.6982  30.1489  30.7495  31.3638  33.5910  34.2488
    35.9947  36.3080  37.3333  37.7526  38.8166  40.4657  41.1907  42.4482

          k = 0.5625-0.3125 0.6875 (  3176 PWs)   bands (ev):

    -3.1452  -0.6257   3.3838   4.4895   8.6804   9.7362  11.1211  13.5809
    14.9275  16.3806  17.9077  18.3353  20.1468  21.6410  24.8656  25.6091
    26.5635  26.9335  28.0249  28.3380  31.1382  32.3999  32.6832  33.2140
    34.2151  35.8481  36.2107  37.1367  38.3363  39.8738  40.9634  41.6394

          k = 0.4375-0.1875 0.5625 (  3171 PWs)   bands (ev):

    -3.6331   0.1033   3.2989   4.7892   9.0068   9.6211  11.0706  12.8056
    14.8272  15.7230  17.7247  19.0744  20.6602  21.8523  23.0445  24.4455
    26.2897  28.0743  28.5975  29.1559  30.9550  31.5756  33.4069  33.6518
    34.7548  35.3145  36.7088  38.3320  38.9869  40.2441  41.0474  41.8534

          k = 0.3125-0.0625 0.4375 (  3171 PWs)   bands (ev):

    -4.5755   1.9066   3.5921   5.3204   9.3229   9.6327  10.9537  11.3575
    13.3266  16.5235  16.7894  18.3583  20.2259  21.4080  22.7454  24.6988
    25.8361  27.1699  28.3742  29.0003  31.9604  32.7052  34.2626  35.2213
    36.3702  37.1275  37.7860  39.4233  39.8529  40.7781  41.0720  42.7658

          k = 0.1875 0.0625 0.3125 (  3183 PWs)   bands (ev):

    -5.2419   3.4098   4.7685   5.7085   8.8270   9.5985  10.2724  11.4911
    13.1113  14.4037  15.9893  17.5019  19.0128  20.7250  24.0954  24.6753
    26.0268  27.7350  28.5419  29.3873  32.2401  33.4148  34.6684  36.4850
    37.6844  38.1602  39.3486  39.7642  40.2963  40.5844  42.3159  42.5043

          k =-0.0625 0.5625 0.0625 (  3171 PWs)   bands (ev):

    -4.4195   2.0975   4.0329   4.1638   7.3618   9.0213  12.3819  12.5180
    15.3110  15.6975  18.1215  19.4440  19.7982  20.9576  22.6577  23.0547
    24.6144  26.2647  28.0359  31.4963  31.9619  33.1239  33.2364  34.9758
    35.3576  35.5009  36.1740  40.7108  41.1278  42.5756  42.9467  43.1217

          k =-0.1875 0.6875-0.0625 (  3172 PWs)   bands (ev):

    -3.6390   0.8278   3.2024   3.7974   7.6789   8.8628  12.3276  13.5249
    16.3505  17.7560  17.8731  19.3087  20.5945  20.9026  22.4939  23.7589
    24.6193  26.0922  28.3625  29.5084  31.2752  31.2911  33.0719  33.4529
    34.6761  35.4833  37.2792  39.2484  39.8349  40.6099  41.7326  43.7552

          k = 0.6875-0.1875 0.8125 (  3177 PWs)   bands (ev):

    -2.6960  -0.4239   2.3187   3.7654   7.9066  10.5798  11.8884  13.4333
    15.2733  17.1282  18.6114  19.8091  20.5342  22.9173  24.1312  24.8551
    25.3019  25.5968  26.8611  29.3432  29.6387  30.2574  31.5461  34.5082
    34.9100  35.6412  35.8989  37.9079  38.7780  39.8754  41.0527  42.2808

          k = 0.5625-0.0625 0.6875 (  3177 PWs)   bands (ev):

    -2.7664  -0.3289   1.9418   4.1265   8.3339  11.3713  12.7244  12.9518
    13.5148  14.8227  19.6771  21.0251  21.6153  22.4886  23.2561  23.8514
    25.4711  26.2827  28.0309  29.1895  30.0230  31.3472  32.1444  33.5667
    34.1732  34.8703  35.7608  36.4622  39.6244  40.5762  40.9458  43.0679

          k = 0.4375 0.0625 0.5625 (  3164 PWs)   bands (ev):

    -3.7057   0.6406   2.5845   4.7406   9.0253  10.2515  11.7359  11.9683
    13.8559  15.9781  18.5996  19.4744  20.2760  22.2777  23.2166  24.3074
    25.2655  27.6957  28.0279  29.8543  31.3037  31.4968  32.5928  33.6415
    34.3929  36.2207  36.5926  38.1274  39.6518  40.1083  41.6797  43.0891

          k = 0.3125 0.1875 0.4375 (  3176 PWs)   bands (ev):

    -4.4567   1.2556   4.3116   5.2190   8.8002   9.6193  10.4939  12.1559
    14.1795  15.7166  16.1904  19.2212  20.3834  21.9986  22.5407  24.0186
    24.9004  28.3979  28.7082  29.7867  31.8596  32.1573  33.6727  35.8041
    36.3358  36.8105  37.7735  38.2447  39.3985  39.7510  41.2971  43.1762

          k =-0.0625 0.8125 0.0625 (  3184 PWs)   bands (ev):

    -2.9639  -0.0558   3.3147   3.5518   6.9280   7.6346  14.7114  14.7141
    17.5696  17.8871  18.4582  18.4984  20.5259  21.2810  22.3824  23.9593
    24.2639  25.3664  28.2740  29.5013  29.5703  30.3374  30.8347  32.8564
    35.4936  35.6603  37.1180  39.9822  41.0502  41.3714  42.3153  42.3651

          k = 0.8125-0.0625 0.9375 (  3187 PWs)   bands (ev):

    -2.0170  -1.0750   2.7150   3.2875   7.3672   8.1273  14.4386  15.5157
    16.0848  17.2771  18.8599  20.0438  20.5302  21.6461  23.0491  24.6672
    25.1756  26.4211  27.4481  27.6107  29.0435  29.5157  30.2405  31.4208
    36.0252  36.8892  37.9843  39.2988  39.3579  40.8844  41.2197  43.2556

          k = 0.6875 0.0625 0.8125 (  3181 PWs)   bands (ev):

    -2.1010  -0.9144   1.9354   3.6163   7.7496  10.4282  12.8806  14.0609
    14.6062  16.0509  19.9606  21.0391  21.8089  22.0905  23.3264  23.7689
    25.5286  26.0666  27.3675  28.4107  29.1914  30.0697  31.1324  32.9378
    35.0456  35.3798  36.6293  37.6502  39.6017  40.2289  41.1749  42.4027

          k = 0.5625 0.1875 0.6875 (  3181 PWs)   bands (ev):

    -2.8814  -0.5518   2.5528   4.2455   8.4679  10.5065  12.1032  13.3340
    13.9344  15.8527  18.2879  19.7342  21.6264  22.1651  23.6510  25.1230
    26.0424  26.6837  27.5059  28.4326  31.3341  32.0403  32.1812  32.5650
    34.2362  35.2626  36.2427  37.2979  38.7802  39.5210  41.3197  42.2054

          k = 0.4375 0.3125 0.5625 (  3178 PWs)   bands (ev):

    -3.5169  -0.4313   4.1408   4.8686   8.6109   9.4581  10.2934  13.8751
    15.0661  16.2183  17.5425  18.4491  19.2922  21.1164  23.9414  25.6459
    27.1515  27.6387  28.8277  29.0336  31.2402  31.7209  33.3419  33.6825
    34.3663  35.9440  36.8572  37.3574  39.0218  39.4896  40.2539  40.9098

          k =-0.0625-0.9375 0.0625 (  3198 PWs)   bands (ev):

    -2.0744  -1.0963   3.1715   3.4269   6.9089   7.2815  15.8164  15.8935
    17.2554  17.3081  18.7056  19.1402  19.9547  20.1293  23.9339  25.3173
    25.5200  25.7483  27.1433  27.4793  28.0513  28.8362  31.0633  31.9989
    35.7143  36.1842  39.0066  40.1756  40.6022  41.3100  42.1234  42.1949

          k =-0.1875-0.8125-0.0625 (  3182 PWs)   bands (ev):

    -2.8724  -0.1199   2.8820   3.4529   7.4688   8.3761  13.3519  14.7108
    16.8499  17.5372  18.5588  19.2192  20.8682  21.5399  22.5407  23.7332
    25.5450  25.9416  27.4856  28.7553  29.5934  30.5404  31.1101  32.8052
    35.6308  35.7465  37.8937  39.0056  39.5119  40.3745  41.1906  43.7860

          k =-0.3125-0.6875-0.1875 (  3174 PWs)   bands (ev):

    -3.3533   0.1004   2.9667   4.0793   8.2059  10.7594  11.1089  12.3303
    16.2606  16.9274  18.0220  19.0809  19.4318  22.3565  24.0835  24.8006
    25.3641  26.6924  27.3244  29.2032  30.2327  31.9347  32.7522  33.5944
    35.3641  35.9465  36.5571  37.5135  38.6877  39.9206  41.8385  42.3114

          k =-0.0625-0.6875 0.0625 (  3179 PWs)   bands (ev):

    -3.7498   1.0204   3.6015   3.7994   7.0771   8.2242  13.5321  13.5986
    16.5626  16.6500  18.8988  19.5885  20.3010  21.2807  22.2571  23.1566
    23.3278  25.4543  29.1887  30.2847  31.5618  31.5769  32.7739  33.7669
    34.1977  35.2178  36.0152  40.3743  41.3668  41.8495  42.5815  42.5967

          k =-0.1875-0.5625-0.0625 (  3175 PWs)   bands (ev):

    -4.2967   1.7290   3.6446   4.3334   7.9952   9.5681  11.3679  12.3716
    15.1703  16.5665  17.6070  19.0741  20.1908  21.5093  21.8821  23.7605
    25.2799  26.8809  27.7354  30.8341  31.4259  32.1035  33.4792  34.8072
    35.5614  36.5159  37.2288  39.2399  40.2038  41.1106  42.4253  42.6153

          k =-0.0625-0.4375 0.0625 (  3186 PWs)   bands (ev):

    -4.9640   3.1391   4.6049   4.6341   7.7601   9.9588  11.2974  11.4713
    14.0056  14.9894  16.9493  18.4890  19.1890  20.2439  23.9661  24.2419
    26.2532  26.3406  27.3667  30.2726  32.5487  33.5478  33.9819  36.0809
    36.7733  37.3996  38.1368  40.0481  40.6256  41.3425  41.8877  43.1410

          k =-0.1875 0.1875 0.1875 (  3170 PWs)   bands (ev):

    -5.3802   3.4834   5.7580   5.7580   8.5642   9.6250   9.6250  12.1628
    13.3732  13.3732  15.3224  17.0353  19.8688  19.8688  23.9391  25.7894
    25.7894  26.4843  30.3208  30.3208  32.5609  32.5609  34.1260  36.4993
    36.8118  39.3920  39.3920  40.1263  40.1263  41.5060  41.5060  44.4611

          k =-0.3125 0.3125 0.0625 (  3180 PWs)   bands (ev):

    -4.9733   2.6449   4.1692   5.7869   9.2354   9.7462  10.0197  12.0913
    12.5053  15.2893  16.3181  17.8270  19.6268  22.0505  22.4863  24.9320
    26.2544  27.1172  28.0976  29.1974  32.7647  32.9616  34.8800  35.7743
    37.2397  37.4610  38.5561  39.8843  40.2094  40.7901  41.4226  42.4273

          k =-0.4375 0.4375-0.0625 (  3160 PWs)   bands (ev):

    -4.1959   1.2500   3.0389   5.2618   9.0144  10.5154  10.6870  12.3767
    12.6185  16.6592  17.9444  18.4670  19.9844  21.9291  23.3754  24.1826
    25.7817  27.3713  28.1846  29.6195  31.4093  32.4172  33.6639  34.4656
    35.0332  36.2590  37.2619  38.8079  39.9963  40.6444  41.6908  43.2482

          k = 0.4375-0.4375 0.8125 (  3175 PWs)   bands (ev):

    -3.2542  -0.3143   2.9009   4.7074   8.4550  10.6812  10.8785  14.2326
    14.3192  14.6831  17.7020  20.6092  20.9699  21.2582  22.9862  25.5191
    26.2555  27.3394  28.2934  28.8078  30.8214  32.6593  33.2757  33.3188
    33.4104  34.5538  35.8540  38.1651  39.0976  40.2422  41.7071  41.8272

          k = 0.3125-0.3125 0.6875 (  3179 PWs)   bands (ev):

    -3.2390  -0.3427   3.2195   4.3736   8.1469  10.7728  11.2294  12.2347
    15.9242  16.8494  18.2478  18.3149  19.0563  22.9277  24.1937  25.1225
    26.4452  26.6823  27.0418  29.3815  30.0807  32.7127  32.9459  33.7486
    34.2243  35.6492  36.6364  37.0517  38.1658  40.4021  41.5700  41.8597

          k = 0.1875-0.1875 0.5625 (  3177 PWs)   bands (ev):

    -4.1799   1.2449   3.8545   4.3441   8.0803  10.3276  11.0707  11.6363
    16.0714  16.3326  16.8348  19.6718  19.6987  21.4147  22.4984  23.8611
    25.9290  26.5701  28.1689  30.5359  30.8217  32.2478  33.4596  34.8095
    35.6603  36.6339  37.5774  38.2679  39.2218  40.9931  41.9615  43.0923

          k =-0.1875 0.4375 0.1875 (  3180 PWs)   bands (ev):

    -4.7066   1.9521   4.7246   4.7779   8.5220  10.0230  10.8858  11.1548
    14.9320  14.9462  16.0638  18.7847  20.3304  21.7782  22.7087  23.4827
    25.6608  27.9367  28.1370  29.4777  32.2347  33.1324  33.5789  36.2083
    36.8861  37.1015  38.3027  38.8054  39.7769  39.8105  41.7976  43.3788

          k =-0.3125 0.5625 0.0625 (  3172 PWs)   bands (ev):

    -4.0555   1.1961   3.0989   4.5738   9.0102  10.1272  10.5355  12.1741
    14.5448  16.9824  17.9441  18.7224  20.1630  21.7559  22.3443  24.9827
    25.2731  26.8551  28.0553  30.7492  30.8718  31.2086  33.0606  34.4331
    35.3941  37.4066  38.0277  38.2215  38.7965  39.9598  41.6269  42.4773

          k = 0.5625-0.3125 0.9375 (  3177 PWs)   bands (ev):

    -3.1236   0.0718   2.2652   3.9699   9.4596   9.9706  11.2799  13.2767
    14.7926  15.3414  19.2775  20.6246  21.0113  21.2652  23.6725  24.5107
    25.2406  27.2788  27.8926  28.8428  30.1726  30.6370  32.8647  33.9502
    34.1834  35.5565  37.1477  37.5450  37.9474  39.8030  40.5500  43.2252

          k = 0.4375-0.1875 0.8125 (  3177 PWs)   bands (ev):

    -2.6072  -0.5782   2.2801   3.6381   8.9639  10.3043  12.0748  13.4675
    13.6628  17.3283  18.2985  19.4868  22.0497  23.2574  23.5604  24.5361
    25.1083  26.3021  27.9054  28.0131  29.8720  31.2368  32.1316  33.1552
    34.6449  35.9782  36.4361  37.4572  38.1262  39.0932  40.0772  42.4405

          k = 0.3125-0.0625 0.6875 (  3180 PWs)   bands (ev):

    -3.4247   0.4840   2.7149   3.8288   8.6961   9.9007  10.9072  13.4284
    15.8892  16.3116  19.1529  19.3663  20.6101  20.9373  23.2105  24.1752
    25.9162  26.8378  27.6572  28.8325  30.3750  30.8658  33.2959  33.5468
    34.9974  36.0031  37.5073  38.5839  38.8887  38.9996  40.5756  43.2909

          k =-0.1875 0.6875 0.1875 (  3179 PWs)   bands (ev):

    -3.5394   0.5318   3.0729   4.0018   7.6636   9.7456  12.1971  12.4707
    17.3204  17.3281  17.8456  18.3971  19.8206  21.7732  23.1186  24.7727
    25.1628  25.8135  27.8238  29.0034  31.2003  32.0536  32.4712  33.4257
    35.3423  35.6457  37.2848  37.9163  38.9510  41.1103  42.6371  42.7922

          k = 0.6875-0.1875 1.0625 (  3173 PWs)   bands (ev):

    -2.7020  -0.2656   2.4523   3.2603   8.4713   9.4981  11.8022  14.6970
    15.1633  17.2192  18.8778  20.4934  21.0678  21.2485  23.3150  24.2332
    26.0037  26.7741  27.0057  28.1816  29.3287  29.8133  31.8101  33.9192
    35.1332  35.9345  37.2455  38.0285  38.8458  38.9269  40.6015  43.2182

          k = 0.5625-0.0625 0.9375 (  3187 PWs)   bands (ev):

    -1.8542  -1.0388   2.1056   2.7246   9.6169  10.5413  11.3602  12.3579
    15.9733  17.4295  18.8241  20.3433  21.9094  23.3802  23.8727  24.5650
    25.2974  25.9433  26.1446  27.2451  29.2978  30.6952  32.2246  33.8650
    34.3886  35.1570  36.0660  36.7107  38.3715  38.9204  42.2029  43.4203

          k = 0.4375 0.0625 0.8125 (  3174 PWs)   bands (ev):

    -2.4819  -0.4851   2.1065   3.2284   9.7127  10.1723  11.0035  13.5287
    14.6708  16.8168  19.2473  20.4910  21.4895  22.4933  23.1283  25.2107
    25.4347  26.4057  26.9994  27.8553  29.3174  30.6658  32.0413  34.1400
    35.0952  35.6847  36.1548  36.8473  38.0671  38.6440  41.1373  43.1902

          k =-0.1875-1.0625 0.1875 (  3190 PWs)   bands (ev):

    -2.0303  -1.0276   2.2194   3.6477   7.1956   9.1802  14.3562  14.5767
    15.7812  15.8462  20.0969  20.2981  21.5593  21.8090  22.4214  23.9966
    25.9247  26.4390  27.2526  28.1895  28.8398  29.6078  30.4323  32.0133
    35.7075  36.4186  37.5042  37.8885  40.5104  40.8215  41.6541  42.1858

          k =-0.3125-0.9375 0.0625 (  3179 PWs)   bands (ev):

    -1.9267  -1.0502   2.3184   2.9612   8.3551   9.2980  12.8173  13.9493
    15.9741  17.3589  18.8414  20.2357  21.9777  22.5250  23.2729  24.1692
    24.7564  26.3210  27.2585  28.0345  29.3274  30.0571  30.4680  32.0308
    35.6466  36.7888  37.3854  37.6280  38.6606  38.8862  42.0177  43.0923

          k =-0.1875-0.8125 0.1875 (  3181 PWs)   bands (ev):

    -2.8045  -0.2341   2.5067   3.7669   7.3565   9.3656  13.3744  13.3953
    16.8729  17.0208  18.7122  19.2025  20.5148  22.4222  22.8780  25.0872
    25.1328  25.8659  26.7218  28.9811  30.1087  30.4117  30.7540  33.7166
    35.2920  35.5355  37.6457  38.2300  38.6781  40.9238  42.0763  42.3165

          k =-0.3125 0.3125 0.3125 (  3173 PWs)   bands (ev):

    -4.5932   1.2108   5.3362   5.3362   8.1053   9.8249   9.8249  14.0096
    14.0626  14.0626  15.1670  19.4497  21.3256  21.3256  23.3716  23.7735
    23.7735  27.6556  30.4480  30.4480  32.2165  32.8939  32.8939  35.8615
    36.5195  36.5195  37.1629  39.2484  39.2484  40.4824  40.4824  42.7151

          k =-0.4375 0.4375 0.1875 (  3170 PWs)   bands (ev):

    -4.0928   0.6271   3.8075   5.2485   8.8127  10.0284  10.0986  13.3807
    13.4508  15.7762  17.5853  18.4967  20.7611  22.0509  22.6579  23.7534
    25.8138  28.6980  28.8722  29.8980  30.5578  32.1077  33.4976  34.7897
    35.6222  35.8746  37.1467  38.0444  39.9275  40.2190  40.5159  42.1664

          k = 0.4375-0.4375 1.0625 (  3169 PWs)   bands (ev):

    -3.2655   0.1253   2.1819   4.6395   8.3582  11.5570  11.6938  13.1735
    13.3110  14.6894  18.9812  20.7329  20.9986  22.6085  22.9036  24.4574
    24.7758  27.0179  29.0029  29.3804  30.6640  32.0084  32.4160  32.9516
    34.2309  34.9706  35.6496  36.8803  40.6301  40.7039  42.1353  42.9116

          k = 0.3125-0.3125 0.9375 (  3188 PWs)   bands (ev):

    -2.4031  -0.6669   1.8134   4.0687   7.6915  11.6726  12.8564  13.1712
    14.3938  14.4329  20.3201  21.4229  21.4353  22.3992  23.2569  24.2444
    24.6306  26.2804  28.1279  28.6332  29.6575  30.2439  32.2898  33.6965
    34.1279  35.0824  35.6644  36.2881  40.8506  40.8667  41.5351  41.7572

          k =-0.3125 0.5625 0.3125 (  3176 PWs)   bands (ev):

    -3.7621   0.0440   4.1707   4.6563   8.4592   9.8501  10.5848  12.6432
    15.4023  16.6557  17.3306  18.4628  19.2325  22.0276  23.5604  24.4662
    26.0476  28.3784  28.4742  29.9958  30.8336  31.1343  33.7525  34.6563
    34.7901  36.3878  36.6406  37.2966  39.3481  39.6954  40.6878  41.2946

          k = 0.5625-0.3125 1.1875 (  3180 PWs)   bands (ev):

    -3.1133  -0.3008   2.7900   4.1455   9.2227   9.5638  12.2431  12.3630
    14.8443  16.3291  18.0045  19.4815  20.6072  22.6624  23.4887  25.2337
    25.6054  26.9270  27.9587  28.8575  30.2776  31.7417  32.5447  33.7744
    34.2079  35.3303  37.0002  37.6571  38.5578  39.1566  41.0459  41.7513

          k = 0.4375-0.1875 1.0625 (  3181 PWs)   bands (ev):

    -2.2613  -0.7232   1.9095   3.3903   8.8263  11.1245  11.9790  12.5449
    14.6234  16.4041  19.6376  20.6227  21.8386  22.8014  23.6975  24.3872
    25.2476  25.7462  27.4540  28.0498  29.0690  31.2586  32.6267  33.0274
    34.0500  34.8776  36.9907  37.4710  38.0731  38.7425  41.2188  43.2564

          k =-0.3125-1.1875 0.3125 (  3180 PWs)   bands (ev):

    -2.7359  -0.5785   2.3636   4.1726   7.8519  11.6223  12.0183  12.2140
    15.4615  15.5467  18.8890  19.8589  20.3791  23.6500  24.4133  24.6956
    24.7495  26.4798  26.9579  28.6513  30.8325  31.3353  31.6414  33.8704
    34.4282  35.6060  35.8500  36.8690  38.5823  40.5200  41.6828  42.2791

          k =-0.4375 0.4375 0.4375 (  3178 PWs)   bands (ev):

    -3.6543  -0.5047   5.1122   5.1122   7.8503   9.6525   9.6525  13.9419
    16.0005  16.0005  16.9701  18.7566  18.7566  19.8611  24.1191  26.5346
    26.5346  28.0002  29.4935  29.4935  31.0459  33.0236  33.0236  33.7851
    33.7851  35.4124  37.8136  38.6489  38.6489  39.5301  39.5301  39.8827

          k = 0.4375-0.4375 1.3125 (  3177 PWs)   bands (ev):

    -3.2843  -0.6800   3.8382   4.8292   8.5168   9.8063  10.2533  14.4708
    15.1755  15.6049  17.2409  19.2800  19.6898  20.3556  24.7573  26.3220
    27.0049  27.4040  28.2102  28.4513  31.5018  32.1629  32.6522  33.9154
    34.0335  35.4351  36.5182  36.8246  39.3636  39.9213  40.0905  40.8333

     highest occupied, lowest unoccupied level (ev):     6.2128    6.9089

!    total energy              =     -15.87527433 Ry
     estimated scf accuracy    <          9.4E-11 Ry

     The total energy is the sum of the following terms:
     one-electron contribution =       4.83379288 Ry
     hartree contribution      =       1.07172578 Ry
     xc contribution           =      -4.83054459 Ry
     ewald contribution        =     -16.95024840 Ry

     convergence has been achieved in  11 iterations

     Forces acting on atoms (cartesian axes, Ry/au):

     atom    1 type  1   force =     0.00000000    0.00000000    0.00000000
     atom    2 type  1   force =    -0.00000000   -0.00000000   -0.00000000

     Total force =     0.000000     Total SCF correction =     0.000000


     Computing stress (Cartesian axis) and pressure

          total   stress  (Ry/bohr**3)                   (kbar)     P=       -0.01
  -0.00000009  -0.00000000  -0.00000000           -0.01       -0.00       -0.00
  -0.00000000  -0.00000009   0.00000000           -0.00       -0.01        0.00
  -0.00000000   0.00000000  -0.00000009           -0.00        0.00       -0.01


     Writing all to output data dir ./work/Si.save/
 
     init_run     :      0.24s CPU      0.30s WALL (       1 calls)
     electrons    :      9.17s CPU     10.19s WALL (       1 calls)
     forces       :      0.01s CPU      0.01s WALL (       1 calls)
     stress       :      0.03s CPU      0.03s WALL (       1 calls)

     Called by init_run:
     wfcinit      :      0.22s CPU      0.25s WALL (       1 calls)
     potinit      :      0.00s CPU      0.00s WALL (       1 calls)
     hinit0       :      0.01s CPU      0.04s WALL (       1 calls)

     Called by electrons:
     c_bands      :      8.02s CPU      8.92s WALL (      11 calls)
     sum_band     :      1.13s CPU      1.26s WALL (      11 calls)
     v_of_rho     :      0.00s CPU      0.00s WALL (      12 calls)
     mix_rho      :      0.00s CPU      0.01s WALL (      11 calls)

     Called by c_bands:
     init_us_2    :      0.02s CPU      0.02s WALL (    1500 calls)
     init_us_2:cp :      0.02s CPU      0.02s WALL (    1500 calls)
     cegterg      :      7.93s CPU      8.82s WALL (     660 calls)

     Called by *egterg:
     cdiaghg      :      1.42s CPU      1.54s WALL (    3412 calls)
     h_psi        :      5.87s CPU      6.57s WALL (    3472 calls)
     g_psi        :      0.01s CPU      0.01s WALL (    2752 calls)

     Called by h_psi:
     h_psi:calbec :      0.08s CPU      0.09s WALL (    3472 calls)
     vloc_psi     :      5.75s CPU      6.42s WALL (    3472 calls)
     add_vuspsi   :      0.03s CPU      0.03s WALL (    3472 calls)

     General routines
     calbec       :      0.09s CPU      0.10s WALL (    3772 calls)
     fft          :      0.01s CPU      0.04s WALL (      40 calls)
     ffts         :      0.00s CPU      0.00s WALL (      11 calls)
     fftw         :      6.44s CPU      7.19s WALL (  146086 calls)
 
     Parallel routines
 
     PWSCF        :      9.53s CPU     10.68s WALL

 
   This run was terminated on:  16:11: 1  31May2023            

=------------------------------------------------------------------------------=
   JOB DONE.
=------------------------------------------------------------------------------=
