
     Program PWSCF v.7.1 starts on 31May2023 at 13:51:25 

     This program is part of the open-source Quantum ESPRESSO suite
     for quantum simulation of materials; please cite
         "P. Giannozzi et al., J. Phys.:Condens. Matter 21 395502 (2009);
         "P. Giannozzi et al., J. Phys.:Condens. Matter 29 465901 (2017);
         "P. Giannozzi et al., J. Chem. Phys. 152 154105 (2020);
          URL http://www.quantum-espresso.org", 
     in publications or presentations arising from this work. More details at
     http://www.quantum-espresso.org/quote

     Parallel version (MPI), running on    20 processors

     MPI processes distributed on     1 nodes
     59897 MiB available memory on the printing compute node when the environment starts
 
     Waiting for input...
     Reading input from standard input

     Current dimensions of program PWSCF are:
     Max number of different atomic species (ntypx) = 10
     Max number of k-points (npk) =  40000
     Max angular momentum in pseudopotentials (lmaxx) =  4
 
     R & G space division:  proc/nbgrp/npool/nimage =      20
     Subspace diagonalization in iterative solution of the eigenvalue problem:
     a serial algorithm will be used

 
     Parallelization info
     --------------------
     sticks:   dense  smooth     PW     G-vecs:    dense   smooth      PW
     Min          57      57     17                 1308     1308     213
     Max          58      58     18                 1312     1312     216
     Sum        1159    1159    349                26229    26229    4285
 
     Using Slab Decomposition
 


     bravais-lattice index     =            2
     lattice parameter (alat)  =      10.2620  a.u.
     unit-cell volume          =     270.1694 (a.u.)^3
     number of atoms/cell      =            2
     number of atomic types    =            1
     number of electrons       =         8.00
     number of Kohn-Sham states=            4
     kinetic-energy cutoff     =      80.0000  Ry
     charge density cutoff     =     320.0000  Ry
     scf convergence threshold =      1.0E-10
     mixing beta               =       0.1500
     number of iterations used =            8  plain     mixing
     energy convergence thresh.=      1.0E-06
     force convergence thresh. =      1.0E-05
     press convergence thresh. =      5.0E-02
     Exchange-correlation= SLA-PZ-NOGX-NOGC
                           (   1   1   0   0   0   0   0)
     nstep                     =          100


     celldm(1)=  10.262001  celldm(2)=   0.000000  celldm(3)=   0.000000
     celldm(4)=   0.000000  celldm(5)=   0.000000  celldm(6)=   0.000000

     crystal axes: (cart. coord. in units of alat)
               a(1) = (  -0.500000   0.000000   0.500000 )  
               a(2) = (   0.000000   0.500000   0.500000 )  
               a(3) = (  -0.500000   0.500000   0.000000 )  

     reciprocal axes: (cart. coord. in units 2 pi/alat)
               b(1) = ( -1.000000 -1.000000  1.000000 )  
               b(2) = (  1.000000  1.000000  1.000000 )  
               b(3) = ( -1.000000  1.000000 -1.000000 )  


     PseudoPot. # 1 for Si read from file:
     ../pseudo/Si.pz-hgh.UPF
     MD5 check sum: cb84f9316d534d44e00c22e249e735ab
     Pseudo is Norm-conserving, Zval =  4.0
     Generated in analytical, separable form
     Using radial grid of 1141 points,  3 beta functions with: 
                l(1) =   0
                l(2) =   0
                l(3) =   1

     atomic species   valence    mass     pseudopotential
        Si             4.00    28.08550     Si( 1.00)

     48 Sym. Ops., with inversion, found (24 have fractional translation)



   Cartesian axes

     site n.     atom                  positions (alat units)
         1           Si  tau(   1) = (   0.0000000   0.0000000   0.0000000  )
         2           Si  tau(   2) = (  -0.7500000   0.7500000   0.7500000  )

     number of k points=    60
                       cart. coord. in units 2pi/alat
        k(    1) = (  -0.0625000   0.0625000   0.0625000), wk =   0.0078125
        k(    2) = (  -0.1875000   0.1875000  -0.0625000), wk =   0.0234375
        k(    3) = (  -0.3125000   0.3125000  -0.1875000), wk =   0.0234375
        k(    4) = (  -0.4375000   0.4375000  -0.3125000), wk =   0.0234375
        k(    5) = (   0.4375000  -0.4375000   0.5625000), wk =   0.0234375
        k(    6) = (   0.3125000  -0.3125000   0.4375000), wk =   0.0234375
        k(    7) = (   0.1875000  -0.1875000   0.3125000), wk =   0.0234375
        k(    8) = (   0.0625000  -0.0625000   0.1875000), wk =   0.0234375
        k(    9) = (  -0.0625000   0.3125000   0.0625000), wk =   0.0234375
        k(   10) = (  -0.1875000   0.4375000  -0.0625000), wk =   0.0468750
        k(   11) = (  -0.3125000   0.5625000  -0.1875000), wk =   0.0468750
        k(   12) = (   0.5625000  -0.3125000   0.6875000), wk =   0.0468750
        k(   13) = (   0.4375000  -0.1875000   0.5625000), wk =   0.0468750
        k(   14) = (   0.3125000  -0.0625000   0.4375000), wk =   0.0468750
        k(   15) = (   0.1875000   0.0625000   0.3125000), wk =   0.0468750
        k(   16) = (  -0.0625000   0.5625000   0.0625000), wk =   0.0234375
        k(   17) = (  -0.1875000   0.6875000  -0.0625000), wk =   0.0468750
        k(   18) = (   0.6875000  -0.1875000   0.8125000), wk =   0.0468750
        k(   19) = (   0.5625000  -0.0625000   0.6875000), wk =   0.0468750
        k(   20) = (   0.4375000   0.0625000   0.5625000), wk =   0.0468750
        k(   21) = (   0.3125000   0.1875000   0.4375000), wk =   0.0468750
        k(   22) = (  -0.0625000   0.8125000   0.0625000), wk =   0.0234375
        k(   23) = (   0.8125000  -0.0625000   0.9375000), wk =   0.0468750
        k(   24) = (   0.6875000   0.0625000   0.8125000), wk =   0.0468750
        k(   25) = (   0.5625000   0.1875000   0.6875000), wk =   0.0468750
        k(   26) = (   0.4375000   0.3125000   0.5625000), wk =   0.0468750
        k(   27) = (  -0.0625000  -0.9375000   0.0625000), wk =   0.0234375
        k(   28) = (  -0.1875000  -0.8125000  -0.0625000), wk =   0.0468750
        k(   29) = (  -0.3125000  -0.6875000  -0.1875000), wk =   0.0468750
        k(   30) = (  -0.0625000  -0.6875000   0.0625000), wk =   0.0234375
        k(   31) = (  -0.1875000  -0.5625000  -0.0625000), wk =   0.0468750
        k(   32) = (  -0.0625000  -0.4375000   0.0625000), wk =   0.0234375
        k(   33) = (  -0.1875000   0.1875000   0.1875000), wk =   0.0078125
        k(   34) = (  -0.3125000   0.3125000   0.0625000), wk =   0.0234375
        k(   35) = (  -0.4375000   0.4375000  -0.0625000), wk =   0.0234375
        k(   36) = (   0.4375000  -0.4375000   0.8125000), wk =   0.0234375
        k(   37) = (   0.3125000  -0.3125000   0.6875000), wk =   0.0234375
        k(   38) = (   0.1875000  -0.1875000   0.5625000), wk =   0.0234375
        k(   39) = (  -0.1875000   0.4375000   0.1875000), wk =   0.0234375
        k(   40) = (  -0.3125000   0.5625000   0.0625000), wk =   0.0468750
        k(   41) = (   0.5625000  -0.3125000   0.9375000), wk =   0.0468750
        k(   42) = (   0.4375000  -0.1875000   0.8125000), wk =   0.0468750
        k(   43) = (   0.3125000  -0.0625000   0.6875000), wk =   0.0468750
        k(   44) = (  -0.1875000   0.6875000   0.1875000), wk =   0.0234375
        k(   45) = (   0.6875000  -0.1875000   1.0625000), wk =   0.0468750
        k(   46) = (   0.5625000  -0.0625000   0.9375000), wk =   0.0468750
        k(   47) = (   0.4375000   0.0625000   0.8125000), wk =   0.0468750
        k(   48) = (  -0.1875000  -1.0625000   0.1875000), wk =   0.0234375
        k(   49) = (  -0.3125000  -0.9375000   0.0625000), wk =   0.0468750
        k(   50) = (  -0.1875000  -0.8125000   0.1875000), wk =   0.0234375
        k(   51) = (  -0.3125000   0.3125000   0.3125000), wk =   0.0078125
        k(   52) = (  -0.4375000   0.4375000   0.1875000), wk =   0.0234375
        k(   53) = (   0.4375000  -0.4375000   1.0625000), wk =   0.0234375
        k(   54) = (   0.3125000  -0.3125000   0.9375000), wk =   0.0234375
        k(   55) = (  -0.3125000   0.5625000   0.3125000), wk =   0.0234375
        k(   56) = (   0.5625000  -0.3125000   1.1875000), wk =   0.0468750
        k(   57) = (   0.4375000  -0.1875000   1.0625000), wk =   0.0468750
        k(   58) = (  -0.3125000  -1.1875000   0.3125000), wk =   0.0234375
        k(   59) = (  -0.4375000   0.4375000   0.4375000), wk =   0.0078125
        k(   60) = (   0.4375000  -0.4375000   1.3125000), wk =   0.0234375

     Dense  grid:    26229 G-vectors     FFT dimensions: (  48,  48,  48)

     Estimated max dynamical RAM per process >       2.68 MB

     Estimated total dynamical RAM >      53.60 MB

     Initial potential from superposition of free atoms

     Starting from uniform charge
     Starting wfcs are random

     total cpu time spent up to now is        0.1 secs

     Self-consistent Calculation

     iteration #  1     ecut=    80.00 Ry     beta= 0.15
     Davidson diagonalization with overlap
     ethr =  1.00E-02,  avg # of iterations =  8.1

     total cpu time spent up to now is        0.4 secs

     total energy              =     -16.44554612 Ry
     estimated scf accuracy    <       1.87874106 Ry

     iteration #  2     ecut=    80.00 Ry     beta= 0.15
     Davidson diagonalization with overlap
     ethr =  1.00E-02,  avg # of iterations =  1.0

     total cpu time spent up to now is        0.5 secs

     total energy              =     -15.70025734 Ry
     estimated scf accuracy    <       1.25751541 Ry

     iteration #  3     ecut=    80.00 Ry     beta= 0.15
     Davidson diagonalization with overlap
     ethr =  1.00E-02,  avg # of iterations =  2.0

     total cpu time spent up to now is        0.6 secs

     total energy              =     -15.87012726 Ry
     estimated scf accuracy    <       0.01416566 Ry

     iteration #  4     ecut=    80.00 Ry     beta= 0.15
     Davidson diagonalization with overlap
     ethr =  1.77E-04,  avg # of iterations =  2.6

     negative rho (up, down):  1.068E-04 0.000E+00

     total cpu time spent up to now is        0.7 secs

     total energy              =     -15.88085731 Ry
     estimated scf accuracy    <       0.00510891 Ry

     iteration #  5     ecut=    80.00 Ry     beta= 0.15
     Davidson diagonalization with overlap
     ethr =  6.39E-05,  avg # of iterations =  2.1

     negative rho (up, down):  4.549E-07 0.000E+00

     total cpu time spent up to now is        0.8 secs

     total energy              =     -15.87195814 Ry
     estimated scf accuracy    <       0.02334354 Ry

     iteration #  6     ecut=    80.00 Ry     beta= 0.15
     Davidson diagonalization with overlap
     ethr =  6.39E-05,  avg # of iterations =  2.0

     negative rho (up, down):  3.379E-07 0.000E+00

     total cpu time spent up to now is        0.9 secs

     total energy              =     -15.87462475 Ry
     estimated scf accuracy    <       0.00003386 Ry

     iteration #  7     ecut=    80.00 Ry     beta= 0.15
     Davidson diagonalization with overlap
     ethr =  4.23E-07,  avg # of iterations =  5.3

     negative rho (up, down):  3.268E-07 0.000E+00

     total cpu time spent up to now is        1.1 secs

     total energy              =     -15.87469131 Ry
     estimated scf accuracy    <       0.00009360 Ry

     iteration #  8     ecut=    80.00 Ry     beta= 0.15
     Davidson diagonalization with overlap
     ethr =  4.23E-07,  avg # of iterations =  1.0

     negative rho (up, down):  3.082E-07 0.000E+00

     total cpu time spent up to now is        1.1 secs

     total energy              =     -15.87467085 Ry
     estimated scf accuracy    <       0.00009411 Ry

     iteration #  9     ecut=    80.00 Ry     beta= 0.15
     Davidson diagonalization with overlap
     ethr =  4.23E-07,  avg # of iterations =  1.0

     total cpu time spent up to now is        1.2 secs

     total energy              =     -15.87467267 Ry
     estimated scf accuracy    <       0.00004631 Ry

     iteration # 10     ecut=    80.00 Ry     beta= 0.15
     Davidson diagonalization with overlap
     ethr =  4.23E-07,  avg # of iterations =  3.0

     total cpu time spent up to now is        1.4 secs

     total energy              =     -15.87468503 Ry
     estimated scf accuracy    <       0.00014824 Ry

     iteration # 11     ecut=    80.00 Ry     beta= 0.15
     Davidson diagonalization with overlap
     ethr =  4.23E-07,  avg # of iterations =  1.0

     total cpu time spent up to now is        1.4 secs

     total energy              =     -15.87470448 Ry
     estimated scf accuracy    <       0.00008240 Ry

     iteration # 12     ecut=    80.00 Ry     beta= 0.15
     Davidson diagonalization with overlap
     ethr =  4.23E-07,  avg # of iterations =  1.0

     total cpu time spent up to now is        1.5 secs

     total energy              =     -15.87464110 Ry
     estimated scf accuracy    <       0.00012858 Ry

     iteration # 13     ecut=    80.00 Ry     beta= 0.15
     Davidson diagonalization with overlap
     ethr =  4.23E-07,  avg # of iterations =  2.0

     total cpu time spent up to now is        1.6 secs

     total energy              =     -15.87465474 Ry
     estimated scf accuracy    <       0.00000022 Ry

     iteration # 14     ecut=    80.00 Ry     beta= 0.15
     Davidson diagonalization with overlap
     ethr =  2.69E-09,  avg # of iterations =  4.0

     total cpu time spent up to now is        1.8 secs

     total energy              =     -15.87465508 Ry
     estimated scf accuracy    <       0.00000169 Ry

     iteration # 15     ecut=    80.00 Ry     beta= 0.15
     Davidson diagonalization with overlap
     ethr =  2.69E-09,  avg # of iterations =  1.0

     total cpu time spent up to now is        1.8 secs

     total energy              =     -15.87465417 Ry
     estimated scf accuracy    <       0.00000200 Ry

     iteration # 16     ecut=    80.00 Ry     beta= 0.15
     Davidson diagonalization with overlap
     ethr =  2.69E-09,  avg # of iterations =  4.0

     total cpu time spent up to now is        2.0 secs

     total energy              =     -15.87465402 Ry
     estimated scf accuracy    <       0.00000201 Ry

     iteration # 17     ecut=    80.00 Ry     beta= 0.15
     Davidson diagonalization with overlap
     ethr =  2.69E-09,  avg # of iterations =  3.0

     total cpu time spent up to now is        2.1 secs

     total energy              =     -15.87465429 Ry
     estimated scf accuracy    <       0.00000016 Ry

     iteration # 18     ecut=    80.00 Ry     beta= 0.15
     Davidson diagonalization with overlap
     ethr =  2.02E-09,  avg # of iterations =  1.3

     total cpu time spent up to now is        2.2 secs

     total energy              =     -15.87465431 Ry
     estimated scf accuracy    <          4.6E-09 Ry

     iteration # 19     ecut=    80.00 Ry     beta= 0.15
     Davidson diagonalization with overlap
     ethr =  5.77E-11,  avg # of iterations =  2.0

     total cpu time spent up to now is        2.3 secs

     total energy              =     -15.87465431 Ry
     estimated scf accuracy    <       0.00000001 Ry

     iteration # 20     ecut=    80.00 Ry     beta= 0.15
     Davidson diagonalization with overlap
     ethr =  5.77E-11,  avg # of iterations =  1.0

     total cpu time spent up to now is        2.4 secs

     total energy              =     -15.87465431 Ry
     estimated scf accuracy    <       0.00000002 Ry

     iteration # 21     ecut=    80.00 Ry     beta= 0.15
     Davidson diagonalization with overlap
     ethr =  5.77E-11,  avg # of iterations =  1.0

     total cpu time spent up to now is        2.5 secs

     total energy              =     -15.87465430 Ry
     estimated scf accuracy    <       0.00000001 Ry

     iteration # 22     ecut=    80.00 Ry     beta= 0.15
     Davidson diagonalization with overlap
     ethr =  5.77E-11,  avg # of iterations =  2.0

     total cpu time spent up to now is        2.6 secs

     total energy              =     -15.87465430 Ry
     estimated scf accuracy    <          1.5E-09 Ry

     iteration # 23     ecut=    80.00 Ry     beta= 0.15
     Davidson diagonalization with overlap
     ethr =  1.86E-11,  avg # of iterations =  1.0

     total cpu time spent up to now is        2.7 secs

     total energy              =     -15.87465430 Ry
     estimated scf accuracy    <          1.7E-09 Ry

     iteration # 24     ecut=    80.00 Ry     beta= 0.15
     Davidson diagonalization with overlap
     ethr =  1.86E-11,  avg # of iterations =  2.5

     total cpu time spent up to now is        2.8 secs

     total energy              =     -15.87465430 Ry
     estimated scf accuracy    <          2.4E-09 Ry

     iteration # 25     ecut=    80.00 Ry     beta= 0.15
     Davidson diagonalization with overlap
     ethr =  1.86E-11,  avg # of iterations =  2.0

     total cpu time spent up to now is        2.9 secs

     total energy              =     -15.87465430 Ry
     estimated scf accuracy    <          5.1E-10 Ry

     iteration # 26     ecut=    80.00 Ry     beta= 0.15
     Davidson diagonalization with overlap
     ethr =  6.39E-12,  avg # of iterations =  1.0

     total cpu time spent up to now is        3.0 secs

     End of self-consistent calculation

          k =-0.0625 0.0625 0.0625 (  3266 PWs)   bands (ev):

    -5.8916   5.4782   5.9326   5.9326

          k =-0.1875 0.1875-0.0625 (  3280 PWs)   bands (ev):

    -5.6204   3.9624   5.1117   5.8169

          k =-0.3125 0.3125-0.1875 (  3273 PWs)   bands (ev):

    -4.9653   1.7151   4.6212   5.3526

          k =-0.4375 0.4375-0.3125 (  3262 PWs)   bands (ev):

    -4.0473  -0.1958   4.4057   4.9428

          k = 0.4375-0.4375 0.5625 (  3259 PWs)   bands (ev):

    -3.5865  -0.9110   4.4580   4.7214

          k = 0.3125-0.3125 0.4375 (  3270 PWs)   bands (ev):

    -4.3626   0.3706   4.7394   4.7476

          k = 0.1875-0.1875 0.3125 (  3280 PWs)   bands (ev):

    -5.2223   2.4524   5.0150   5.2155

          k = 0.0625-0.0625 0.1875 (  3267 PWs)   bands (ev):

    -5.7553   4.7224   5.4997   5.6628

          k =-0.0625 0.3125 0.0625 (  3278 PWs)   bands (ev):

    -5.4841   3.8280   4.9354   5.0213

          k =-0.1875 0.4375-0.0625 (  3265 PWs)   bands (ev):

    -4.9533   2.3184   3.9455   4.7621

          k =-0.3125 0.5625-0.1875 (  3270 PWs)   bands (ev):

    -4.0958   0.4355   3.4473   4.3452

          k = 0.5625-0.3125 0.6875 (  3258 PWs)   bands (ev):

    -3.3159  -0.7976   3.1556   4.2512

          k = 0.4375-0.1875 0.5625 (  3260 PWs)   bands (ev):

    -3.7858  -0.0927   3.0780   4.5413

          k = 0.3125-0.0625 0.4375 (  3272 PWs)   bands (ev):

    -4.7018   1.6612   3.3768   5.0569

          k = 0.1875 0.0625 0.3125 (  3275 PWs)   bands (ev):

    -5.3521   3.1434   4.5249   5.4339

          k =-0.0625 0.5625 0.0625 (  3275 PWs)   bands (ev):

    -4.5485   1.8243   3.8073   3.9353

          k =-0.1875 0.6875-0.0625 (  3266 PWs)   bands (ev):

    -3.7872   0.5801   2.9999   3.5795

          k = 0.6875-0.1875 0.8125 (  3258 PWs)   bands (ev):

    -2.8725  -0.6351   2.1386   3.5478

          k = 0.5625-0.0625 0.6875 (  3254 PWs)   bands (ev):

    -2.9428  -0.5411   1.7751   3.8984

          k = 0.4375 0.0625 0.5625 (  3263 PWs)   bands (ev):

    -3.8547   0.4142   2.3955   4.4948

          k = 0.3125 0.1875 0.4375 (  3273 PWs)   bands (ev):

    -4.5864   1.0382   4.0688   4.9569

          k =-0.0625 0.8125 0.0625 (  3269 PWs)   bands (ev):

    -3.1271  -0.2873   3.1082   3.3362

          k = 0.8125-0.0625 0.9375 (  3268 PWs)   bands (ev):

    -2.2047  -1.2845   2.5295   3.0817

          k = 0.6875 0.0625 0.8125 (  3254 PWs)   bands (ev):

    -2.2945  -1.1222   1.7754   3.4020

          k = 0.5625 0.1875 0.6875 (  3250 PWs)   bands (ev):

    -3.0578  -0.7385   2.3545   4.0144

          k = 0.4375 0.3125 0.5625 (  3258 PWs)   bands (ev):

    -3.6760  -0.6038   3.8952   4.6173

          k =-0.0625-0.9375 0.0625 (  3276 PWs)   bands (ev):

    -2.2588  -1.3038   2.9685   3.2138

          k =-0.1875-0.8125-0.0625 (  3270 PWs)   bands (ev):

    -3.0391  -0.3507   2.6906   3.2436

          k =-0.3125-0.6875-0.1875 (  3264 PWs)   bands (ev):

    -3.5119  -0.1099   2.7578   3.8535

          k =-0.0625-0.6875 0.0625 (  3272 PWs)   bands (ev):

    -3.8945   0.7660   3.3879   3.5785

          k =-0.1875-0.5625-0.0625 (  3269 PWs)   bands (ev):

    -4.4291   1.4715   3.4284   4.0988

          k =-0.0625-0.4375 0.0625 (  3260 PWs)   bands (ev):

    -5.0804   2.8547   4.3617   4.3953

          k =-0.1875 0.1875 0.1875 (  3284 PWs)   bands (ev):

    -5.4872   3.2282   5.4882   5.4882

          k =-0.3125 0.3125 0.0625 (  3270 PWs)   bands (ev):

    -5.0900   2.3912   3.9400   5.5119

          k =-0.4375 0.4375-0.0625 (  3275 PWs)   bands (ev):

    -4.3320   1.0162   2.8374   5.0004

          k = 0.4375-0.4375 0.8125 (  3258 PWs)   bands (ev):

    -3.4191  -0.5010   2.6910   4.4610

          k = 0.3125-0.3125 0.6875 (  3262 PWs)   bands (ev):

    -3.4039  -0.5292   2.9982   4.1369

          k = 0.1875-0.1875 0.5625 (  3273 PWs)   bands (ev):

    -4.3157   1.0119   3.6204   4.1102

          k =-0.1875 0.4375 0.1875 (  3274 PWs)   bands (ev):

    -4.8297   1.7159   4.4651   4.5338

          k =-0.3125 0.5625 0.0625 (  3265 PWs)   bands (ev):

    -4.1946   0.9559   2.8963   4.3328

          k = 0.5625-0.3125 0.9375 (  3257 PWs)   bands (ev):

    -3.2883  -0.1506   2.0871   3.7492

          k = 0.4375-0.1875 0.8125 (  3257 PWs)   bands (ev):

    -2.7893  -0.7782   2.0955   3.4285

          k = 0.3125-0.0625 0.6875 (  3263 PWs)   bands (ev):

    -3.5796   0.2485   2.5243   3.6127

          k =-0.1875 0.6875 0.1875 (  3257 PWs)   bands (ev):

    -3.6911   0.3008   2.8686   3.7755

          k = 0.6875-0.1875 1.0625 (  3267 PWs)   bands (ev):

    -2.8754  -0.4925   2.2729   3.0619

          k = 0.5625-0.0625 0.9375 (  3259 PWs)   bands (ev):

    -2.0526  -1.2517   1.9414   2.5435

          k = 0.4375 0.0625 0.8125 (  3265 PWs)   bands (ev):

    -2.6639  -0.7042   1.9371   3.0322

          k =-0.1875-1.0625 0.1875 (  3261 PWs)   bands (ev):

    -2.2214  -1.2359   2.0509   3.4292

          k =-0.3125-0.9375 0.0625 (  3263 PWs)   bands (ev):

    -2.1200  -1.2620   2.1471   2.7698

          k =-0.1875-0.8125 0.1875 (  3263 PWs)   bands (ev):

    -2.9748  -0.4581   2.3263   3.5458

          k =-0.3125 0.3125 0.3125 (  3272 PWs)   bands (ev):

    -4.7198   1.0009   5.0736   5.0736

          k =-0.4375 0.4375 0.1875 (  3262 PWs)   bands (ev):

    -4.2325   0.4230   3.5756   4.9867

          k = 0.4375-0.4375 1.0625 (  3255 PWs)   bands (ev):

    -3.4273  -0.0917   2.0053   4.3953

          k = 0.3125-0.3125 0.9375 (  3246 PWs)   bands (ev):

    -2.5905  -0.8742   1.6540   3.8396

          k =-0.3125 0.5625 0.3125 (  3274 PWs)   bands (ev):

    -3.9117  -0.1446   3.9222   4.4122

          k = 0.5625-0.3125 1.1875 (  3262 PWs)   bands (ev):

    -3.2811  -0.4948   2.5830   3.9196

          k = 0.4375-0.1875 1.0625 (  3258 PWs)   bands (ev):

    -2.4515  -0.9346   1.7480   3.1869

          k =-0.3125-1.1875 0.3125 (  3257 PWs)   bands (ev):

    -2.9153  -0.7717   2.1755   3.9409

          k =-0.4375 0.4375 0.4375 (  3262 PWs)   bands (ev):

    -3.8104  -0.6707   4.8527   4.8527

          k = 0.4375-0.4375 1.3125 (  3258 PWs)   bands (ev):

    -3.4521  -0.8451   3.5997   4.5788

     highest occupied level (ev):     5.9326

!    total energy              =     -15.87465430 Ry
     estimated scf accuracy    <          1.6E-12 Ry

     The total energy is the sum of the following terms:
     one-electron contribution =       4.62983502 Ry
     hartree contribution      =       1.09422952 Ry
     xc contribution           =      -4.80106510 Ry
     ewald contribution        =     -16.79765375 Ry

     convergence has been achieved in  26 iterations


     Computing stress (Cartesian axis) and pressure

          total   stress  (Ry/bohr**3)                   (kbar)     P=      -24.68
  -0.00016779  -0.00000000  -0.00000000          -24.68       -0.00       -0.00
  -0.00000000  -0.00016779   0.00000000           -0.00      -24.68        0.00
  -0.00000000   0.00000000  -0.00016779           -0.00        0.00      -24.68


     BFGS Geometry Optimization
     Energy error            =      0.0E+00 Ry
     Gradient error          =      0.0E+00 Ry/Bohr
     Cell gradient error     =      2.5E+01 kbar

     number of scf cycles    =   1
     number of bfgs steps    =   0

     enthalpy           new  =     -15.8746543017 Ry

     new trust radius        =       0.0137893245 bohr
ibrav =      2
 celldm(1) =     10.21895545
Input lattice vectors:
    -0.49790268     0.00000000     0.49790268
    -0.00000000     0.49790268     0.49790268
    -0.49790268     0.49790268     0.00000000
New lattice vectors in INITIAL alat:
    -0.49790268     0.00000000     0.49790268
     0.00000000     0.49790268     0.49790268
    -0.49790268     0.49790268     0.00000000
New lattice vectors in NEW alat (for information only):
    -0.50000000     0.00000000     0.50000000
     0.00000000     0.50000000     0.50000000
    -0.50000000     0.50000000     0.00000000
Discrepancy in bohr =     0.000000    0.000000    0.000000
     new conv_thr            =            1.0E-10 Ry

     new unit-cell volume =    266.78384 a.u.^3 (    39.53329 Ang^3 )
     density =      2.35938 g/cm^3

CELL_PARAMETERS (alat= 10.26200087)
  -0.497902679   0.000000000   0.497902679
   0.000000000   0.497902679   0.497902679
  -0.497902679   0.497902679   0.000000000

ATOMIC_POSITIONS (crystal)
Si            0.0000000000        0.0000000000        0.0000000000    0   0   0
Si            0.7500000000        0.7500000000        0.7500000000    0   0   0



     Writing config-only to output data dir ./work/Si.save/
     NEW-OLD atomic charge density approx. for the potential

     total cpu time spent up to now is        3.0 secs

     Self-consistent Calculation

     iteration #  1     ecut=    80.00 Ry     beta= 0.15
     Davidson diagonalization with overlap
     ethr =  1.00E-06,  avg # of iterations =  4.1

     total cpu time spent up to now is        3.2 secs

     total energy              =     -15.87513285 Ry
     estimated scf accuracy    <       0.00014392 Ry

     iteration #  2     ecut=    80.00 Ry     beta= 0.15
     Davidson diagonalization with overlap
     ethr =  1.80E-06,  avg # of iterations =  1.0

     total cpu time spent up to now is        3.2 secs

     total energy              =     -15.87508420 Ry
     estimated scf accuracy    <       0.00009521 Ry

     iteration #  3     ecut=    80.00 Ry     beta= 0.15
     Davidson diagonalization with overlap
     ethr =  1.19E-06,  avg # of iterations =  2.0

     total cpu time spent up to now is        3.3 secs

     total energy              =     -15.87509657 Ry
     estimated scf accuracy    <       0.00000105 Ry

     iteration #  4     ecut=    80.00 Ry     beta= 0.15
     Davidson diagonalization with overlap
     ethr =  1.31E-08,  avg # of iterations =  3.2

     total cpu time spent up to now is        3.5 secs

     total energy              =     -15.87509604 Ry
     estimated scf accuracy    <       0.00000344 Ry

     iteration #  5     ecut=    80.00 Ry     beta= 0.15
     Davidson diagonalization with overlap
     ethr =  1.31E-08,  avg # of iterations =  1.9

     total cpu time spent up to now is        3.6 secs

     total energy              =     -15.87509596 Ry
     estimated scf accuracy    <       0.00000056 Ry

     iteration #  6     ecut=    80.00 Ry     beta= 0.15
     Davidson diagonalization with overlap
     ethr =  7.02E-09,  avg # of iterations =  1.0

     total cpu time spent up to now is        3.6 secs

     total energy              =     -15.87509597 Ry
     estimated scf accuracy    <       0.00000016 Ry

     iteration #  7     ecut=    80.00 Ry     beta= 0.15
     Davidson diagonalization with overlap
     ethr =  1.94E-09,  avg # of iterations =  1.0

     total cpu time spent up to now is        3.7 secs

     total energy              =     -15.87509599 Ry
     estimated scf accuracy    <       0.00000013 Ry

     iteration #  8     ecut=    80.00 Ry     beta= 0.15
     Davidson diagonalization with overlap
     ethr =  1.65E-09,  avg # of iterations =  1.0

     total cpu time spent up to now is        3.8 secs

     total energy              =     -15.87509592 Ry
     estimated scf accuracy    <       0.00000017 Ry

     iteration #  9     ecut=    80.00 Ry     beta= 0.15
     Davidson diagonalization with overlap
     ethr =  1.65E-09,  avg # of iterations =  2.0

     total cpu time spent up to now is        3.9 secs

     total energy              =     -15.87509593 Ry
     estimated scf accuracy    <          5.0E-09 Ry

     iteration # 10     ecut=    80.00 Ry     beta= 0.15
     Davidson diagonalization with overlap
     ethr =  6.23E-11,  avg # of iterations =  2.9

     total cpu time spent up to now is        4.0 secs

     total energy              =     -15.87509593 Ry
     estimated scf accuracy    <          5.8E-10 Ry

     iteration # 11     ecut=    80.00 Ry     beta= 0.15
     Davidson diagonalization with overlap
     ethr =  7.24E-12,  avg # of iterations =  2.2

     total cpu time spent up to now is        4.1 secs

     total energy              =     -15.87509593 Ry
     estimated scf accuracy    <          8.1E-10 Ry

     iteration # 12     ecut=    80.00 Ry     beta= 0.15
     Davidson diagonalization with overlap
     ethr =  7.24E-12,  avg # of iterations =  2.0

     total cpu time spent up to now is        4.2 secs

     total energy              =     -15.87509593 Ry
     estimated scf accuracy    <          3.5E-09 Ry

     iteration # 13     ecut=    80.00 Ry     beta= 0.15
     Davidson diagonalization with overlap
     ethr =  7.24E-12,  avg # of iterations =  2.0

     total cpu time spent up to now is        4.3 secs

     total energy              =     -15.87509593 Ry
     estimated scf accuracy    <          1.1E-10 Ry

     iteration # 14     ecut=    80.00 Ry     beta= 0.15
     Davidson diagonalization with overlap
     ethr =  1.37E-12,  avg # of iterations =  2.0

     total cpu time spent up to now is        4.4 secs

     End of self-consistent calculation

          k =-0.0628 0.0628 0.0628 (  3266 PWs)   bands (ev):

    -5.8466   5.6099   6.0620   6.0620

          k =-0.1883 0.1883-0.0628 (  3280 PWs)   bands (ev):

    -5.5725   4.0890   5.2308   5.9463

          k =-0.3138 0.3138-0.1883 (  3273 PWs)   bands (ev):

    -4.9099   1.8207   4.7377   5.4775

          k =-0.4393 0.4393-0.3138 (  3262 PWs)   bands (ev):

    -3.9795  -0.1116   4.5222   5.0636

          k = 0.4393-0.4393 0.5649 (  3259 PWs)   bands (ev):

    -3.5104  -0.8375   4.5764   4.8393

          k = 0.3138-0.3138 0.4393 (  3270 PWs)   bands (ev):

    -4.2995   0.4617   4.8563   4.8693

          k = 0.1883-0.1883 0.3138 (  3280 PWs)   bands (ev):

    -5.1699   2.5651   5.1334   5.3412

          k = 0.0628-0.0628 0.1883 (  3267 PWs)   bands (ev):

    -5.7089   4.8544   5.6228   5.7919

          k =-0.0628 0.3138 0.0628 (  3278 PWs)   bands (ev):

    -5.4347   3.9609   5.0516   5.1434

          k =-0.1883 0.4393-0.0628 (  3265 PWs)   bands (ev):

    -4.8980   2.4398   4.0516   4.8806

          k =-0.3138 0.5649-0.1883 (  3270 PWs)   bands (ev):

    -4.0299   0.5334   3.5539   4.4570

          k = 0.5649-0.3138 0.6904 (  3258 PWs)   bands (ev):

    -3.2371  -0.7180   3.2609   4.3613

          k = 0.4393-0.1883 0.5649 (  3260 PWs)   bands (ev):

    -3.7153  -0.0019   3.1799   4.6557

          k = 0.3138-0.0628 0.4393 (  3272 PWs)   bands (ev):

    -4.6434   1.7748   3.4762   5.1786

          k = 0.1883 0.0628 0.3138 (  3275 PWs)   bands (ev):

    -5.3012   3.2668   4.6374   5.5607

          k =-0.0628 0.5649 0.0628 (  3275 PWs)   bands (ev):

    -4.4889   1.9507   3.9115   4.0408

          k =-0.1883 0.6904-0.0628 (  3266 PWs)   bands (ev):

    -3.7187   0.6946   3.0933   3.6801

          k = 0.6904-0.1883 0.8159 (  3258 PWs)   bands (ev):

    -2.7909  -0.5373   2.2217   3.6483

          k = 0.5649-0.0628 0.6904 (  3254 PWs)   bands (ev):

    -2.8613  -0.4429   1.8520   4.0037

          k = 0.4393 0.0628 0.5649 (  3263 PWs)   bands (ev):

    -3.7859   0.5190   2.4827   4.6083

          k = 0.3138 0.1883 0.4393 (  3273 PWs)   bands (ev):

    -4.5265   1.1389   4.1809   5.0779

          k =-0.0628 0.8159 0.0628 (  3269 PWs)   bands (ev):

    -3.0517  -0.1802   3.2035   3.4357

          k = 0.8159-0.0628 0.9414 (  3268 PWs)   bands (ev):

    -2.1179  -1.1876   2.6152   3.1767

          k = 0.6904 0.0628 0.8159 (  3254 PWs)   bands (ev):

    -2.2051  -1.0261   1.8493   3.5009

          k = 0.5649 0.1883 0.6904 (  3250 PWs)   bands (ev):

    -2.9764  -0.6520   2.4459   4.1211

          k = 0.4393 0.3138 0.5649 (  3258 PWs)   bands (ev):

    -3.6025  -0.5239   4.0086   4.7333

          k =-0.0628-0.9414 0.0628 (  3276 PWs)   bands (ev):

    -2.1736  -1.2079   3.0622   3.3121

          k =-0.1883-0.8159-0.0628 (  3270 PWs)   bands (ev):

    -2.9620  -0.2440   2.7790   3.3402

          k =-0.3138-0.6904-0.1883 (  3264 PWs)   bands (ev):

    -3.4386  -0.0125   2.8542   3.9578

          k =-0.0628-0.6904 0.0628 (  3272 PWs)   bands (ev):

    -3.8276   0.8836   3.4865   3.6805

          k =-0.1883-0.5649-0.0628 (  3269 PWs)   bands (ev):

    -4.3679   1.5906   3.5282   4.2071

          k =-0.0628-0.4393 0.0628 (  3260 PWs)   bands (ev):

    -5.0267   2.9864   4.4739   4.5056

          k =-0.1883 0.1883 0.1883 (  3284 PWs)   bands (ev):

    -5.4377   3.3464   5.6128   5.6128

          k =-0.3138 0.3138 0.0628 (  3270 PWs)   bands (ev):

    -5.0361   2.5087   4.0458   5.6389

          k =-0.4393 0.4393-0.0628 (  3275 PWs)   bands (ev):

    -4.2691   1.1244   2.9303   5.1211

          k = 0.4393-0.4393 0.8159 (  3258 PWs)   bands (ev):

    -3.3430  -0.4145   2.7879   4.5748

          k = 0.3138-0.3138 0.6904 (  3262 PWs)   bands (ev):

    -3.3277  -0.4428   3.1003   4.2462

          k = 0.1883-0.1883 0.5649 (  3273 PWs)   bands (ev):

    -4.2530   1.1198   3.7284   4.2182

          k =-0.1883 0.4393 0.1883 (  3274 PWs)   bands (ev):

    -4.7729   1.8253   4.5849   4.6465

          k =-0.3138 0.5649 0.0628 (  3265 PWs)   bands (ev):

    -4.1303   1.0670   2.9898   4.4441

          k = 0.5649-0.3138 0.9414 (  3257 PWs)   bands (ev):

    -3.2122  -0.0477   2.1693   3.8511

          k = 0.4393-0.1883 0.8159 (  3257 PWs)   bands (ev):

    -2.7052  -0.6856   2.1806   3.5253

          k = 0.3138-0.0628 0.6904 (  3263 PWs)   bands (ev):

    -3.5080   0.3574   2.6123   3.7125

          k =-0.1883 0.6904 0.1883 (  3257 PWs)   bands (ev):

    -3.6210   0.4077   2.9628   3.8800

          k = 0.6904-0.1883 1.0670 (  3267 PWs)   bands (ev):

    -2.7953  -0.3876   2.3557   3.1536

          k = 0.5649-0.0628 0.9414 (  3259 PWs)   bands (ev):

    -1.9610  -1.1533   2.0172   2.6272

          k = 0.4393 0.0628 0.8159 (  3265 PWs)   bands (ev):

    -2.5798  -0.6029   2.0153   3.1228

          k =-0.1883-1.0670 0.1883 (  3261 PWs)   bands (ev):

    -2.1331  -1.1396   2.1287   3.5300

          k =-0.3138-0.9414 0.0628 (  3263 PWs)   bands (ev):

    -2.0307  -1.1641   2.2262   2.8582

          k =-0.1883-0.8159 0.1883 (  3263 PWs)   bands (ev):

    -2.8961  -0.3546   2.4096   3.6479

          k =-0.3138 0.3138 0.3138 (  3272 PWs)   bands (ev):

    -4.6613   1.0980   5.1949   5.1949

          k =-0.4393 0.4393 0.1883 (  3262 PWs)   bands (ev):

    -4.1680   0.5175   3.6826   5.1075

          k = 0.4393-0.4393 1.0670 (  3255 PWs)   bands (ev):

    -3.3526   0.0087   2.0867   4.5081

          k = 0.3138-0.3138 0.9414 (  3246 PWs)   bands (ev):

    -2.5039  -0.7783   1.7275   3.9454

          k =-0.3138 0.5649 0.3138 (  3274 PWs)   bands (ev):

    -3.8426  -0.0573   4.0369   4.5249

          k = 0.5649-0.3138 1.1925 (  3262 PWs)   bands (ev):

    -3.2036  -0.4049   2.6785   4.0239

          k = 0.4393-0.1883 1.0670 (  3258 PWs)   bands (ev):

    -2.3636  -0.8368   1.8226   3.2809

          k =-0.3138-1.1925 0.3138 (  3257 PWs)   bands (ev):

    -2.8324  -0.6823   2.2622   4.0479

          k =-0.4393 0.4393 0.4393 (  3262 PWs)   bands (ev):

    -3.7383  -0.5939   4.9725   4.9725

          k = 0.4393-0.4393 1.3180 (  3258 PWs)   bands (ev):

    -3.3746  -0.7686   3.7097   4.6944

     highest occupied level (ev):     6.0620

!    total energy              =     -15.87509593 Ry
     estimated scf accuracy    <          3.8E-12 Ry

     The total energy is the sum of the following terms:
     one-electron contribution =       4.72429460 Ry
     hartree contribution      =       1.08373458 Ry
     xc contribution           =      -4.81471442 Ry
     ewald contribution        =     -16.86841069 Ry

     convergence has been achieved in  14 iterations


     Computing stress (Cartesian axis) and pressure

          total   stress  (Ry/bohr**3)                   (kbar)     P=      -13.57
  -0.00009226  -0.00000000   0.00000000          -13.57       -0.00        0.00
  -0.00000000  -0.00009226   0.00000000           -0.00      -13.57        0.00
   0.00000000   0.00000000  -0.00009226            0.00        0.00      -13.57

     Energy error            =      4.4E-04 Ry
     Gradient error          =      0.0E+00 Ry/Bohr
     Cell gradient error     =      1.4E+01 kbar

     number of scf cycles    =   2
     number of bfgs steps    =   1

     enthalpy           old  =     -15.8746543017 Ry
     enthalpy           new  =     -15.8750959319 Ry

     CASE: enthalpy          _new < enthalpy          _old

     new trust radius        =       0.0164983679 bohr
ibrav =      2
 celldm(1) =     10.16734499
Input lattice vectors:
    -0.49538804    -0.00000000     0.49538804
     0.00000000     0.49538804     0.49538804
    -0.49538804     0.49538804    -0.00000000
New lattice vectors in INITIAL alat:
    -0.49538804     0.00000000     0.49538804
     0.00000000     0.49538804     0.49538804
    -0.49538804     0.49538804     0.00000000
New lattice vectors in NEW alat (for information only):
    -0.50000000     0.00000000     0.50000000
     0.00000000     0.50000000     0.50000000
    -0.50000000     0.50000000     0.00000000
Discrepancy in bohr =     0.000000    0.000000    0.000000
     new conv_thr            =            1.0E-12 Ry

     new unit-cell volume =    262.76208 a.u.^3 (    38.93732 Ang^3 )
     density =      2.39549 g/cm^3

CELL_PARAMETERS (alat= 10.26200087)
  -0.495388040   0.000000000   0.495388040
   0.000000000   0.495388040   0.495388040
  -0.495388040   0.495388040   0.000000000

ATOMIC_POSITIONS (crystal)
Si            0.0000000000        0.0000000000        0.0000000000    0   0   0
Si            0.7500000000        0.7500000000        0.7500000000    0   0   0



     Writing config-only to output data dir ./work/Si.save/
     NEW-OLD atomic charge density approx. for the potential

     total cpu time spent up to now is        4.5 secs

     Self-consistent Calculation

     iteration #  1     ecut=    80.00 Ry     beta= 0.15
     Davidson diagonalization with overlap
     ethr =  1.00E-06,  avg # of iterations =  4.3

     total cpu time spent up to now is        4.6 secs

     total energy              =     -15.87532887 Ry
     estimated scf accuracy    <       0.00020763 Ry

     iteration #  2     ecut=    80.00 Ry     beta= 0.15
     Davidson diagonalization with overlap
     ethr =  2.60E-06,  avg # of iterations =  1.0

     total cpu time spent up to now is        4.7 secs

     total energy              =     -15.87525798 Ry
     estimated scf accuracy    <       0.00013786 Ry

     iteration #  3     ecut=    80.00 Ry     beta= 0.15
     Davidson diagonalization with overlap
     ethr =  1.72E-06,  avg # of iterations =  2.0

     total cpu time spent up to now is        4.8 secs

     total energy              =     -15.87527753 Ry
     estimated scf accuracy    <       0.00000166 Ry

     iteration #  4     ecut=    80.00 Ry     beta= 0.15
     Davidson diagonalization with overlap
     ethr =  2.08E-08,  avg # of iterations =  3.4

     total cpu time spent up to now is        5.0 secs

     total energy              =     -15.87527522 Ry
     estimated scf accuracy    <       0.00000873 Ry

     iteration #  5     ecut=    80.00 Ry     beta= 0.15
     Davidson diagonalization with overlap
     ethr =  2.08E-08,  avg # of iterations =  2.0

     total cpu time spent up to now is        5.1 secs

     total energy              =     -15.87527542 Ry
     estimated scf accuracy    <       0.00000081 Ry

     iteration #  6     ecut=    80.00 Ry     beta= 0.15
     Davidson diagonalization with overlap
     ethr =  1.02E-08,  avg # of iterations =  1.1

     total cpu time spent up to now is        5.2 secs

     total energy              =     -15.87527545 Ry
     estimated scf accuracy    <       0.00000023 Ry

     iteration #  7     ecut=    80.00 Ry     beta= 0.15
     Davidson diagonalization with overlap
     ethr =  2.81E-09,  avg # of iterations =  1.0

     total cpu time spent up to now is        5.2 secs

     total energy              =     -15.87527544 Ry
     estimated scf accuracy    <       0.00000023 Ry

     iteration #  8     ecut=    80.00 Ry     beta= 0.15
     Davidson diagonalization with overlap
     ethr =  2.81E-09,  avg # of iterations =  1.0

     total cpu time spent up to now is        5.3 secs

     total energy              =     -15.87527537 Ry
     estimated scf accuracy    <       0.00000016 Ry

     iteration #  9     ecut=    80.00 Ry     beta= 0.15
     Davidson diagonalization with overlap
     ethr =  2.02E-09,  avg # of iterations =  2.0

     total cpu time spent up to now is        5.4 secs

     total energy              =     -15.87527539 Ry
     estimated scf accuracy    <          2.1E-09 Ry

     iteration # 10     ecut=    80.00 Ry     beta= 0.15
     Davidson diagonalization with overlap
     ethr =  2.59E-11,  avg # of iterations =  3.5

     total cpu time spent up to now is        5.5 secs

     total energy              =     -15.87527539 Ry
     estimated scf accuracy    <          7.9E-10 Ry

     iteration # 11     ecut=    80.00 Ry     beta= 0.15
     Davidson diagonalization with overlap
     ethr =  9.92E-12,  avg # of iterations =  2.1

     total cpu time spent up to now is        5.6 secs

     total energy              =     -15.87527539 Ry
     estimated scf accuracy    <          3.3E-11 Ry

     iteration # 12     ecut=    80.00 Ry     beta= 0.15
     Davidson diagonalization with overlap
     ethr =  4.13E-13,  avg # of iterations =  3.6

     total cpu time spent up to now is        5.8 secs

     total energy              =     -15.87527539 Ry
     estimated scf accuracy    <          3.1E-11 Ry

     iteration # 13     ecut=    80.00 Ry     beta= 0.15
     Davidson diagonalization with overlap
     ethr =  3.82E-13,  avg # of iterations =  2.0

     total cpu time spent up to now is        5.9 secs

     total energy              =     -15.87527539 Ry
     estimated scf accuracy    <          9.2E-11 Ry

     iteration # 14     ecut=    80.00 Ry     beta= 0.15
     Davidson diagonalization with overlap
     ethr =  3.82E-13,  avg # of iterations =  1.0

     total cpu time spent up to now is        6.0 secs

     total energy              =     -15.87527539 Ry
     estimated scf accuracy    <          9.8E-11 Ry

     iteration # 15     ecut=    80.00 Ry     beta= 0.15
     Davidson diagonalization with overlap
     ethr =  3.82E-13,  avg # of iterations =  2.0

     total cpu time spent up to now is        6.1 secs

     total energy              =     -15.87527539 Ry
     estimated scf accuracy    <          1.9E-11 Ry

     iteration # 16     ecut=    80.00 Ry     beta= 0.15
     Davidson diagonalization with overlap
     ethr =  2.34E-13,  avg # of iterations =  2.8

     total cpu time spent up to now is        6.2 secs

     total energy              =     -15.87527539 Ry
     estimated scf accuracy    <          5.7E-11 Ry

     iteration # 17     ecut=    80.00 Ry     beta= 0.15
     Davidson diagonalization with overlap
     ethr =  2.34E-13,  avg # of iterations =  1.6

     total cpu time spent up to now is        6.3 secs

     total energy              =     -15.87527539 Ry
     estimated scf accuracy    <          1.1E-10 Ry

     iteration # 18     ecut=    80.00 Ry     beta= 0.15
     Davidson diagonalization with overlap
     ethr =  2.34E-13,  avg # of iterations =  2.0

     total cpu time spent up to now is        6.4 secs

     total energy              =     -15.87527539 Ry
     estimated scf accuracy    <          1.7E-11 Ry

     iteration # 19     ecut=    80.00 Ry     beta= 0.15
     Davidson diagonalization with overlap
     ethr =  2.15E-13,  avg # of iterations =  2.0

     total cpu time spent up to now is        6.5 secs

     total energy              =     -15.87527539 Ry
     estimated scf accuracy    <          1.0E-12 Ry

     iteration # 20     ecut=    80.00 Ry     beta= 0.15
     Davidson diagonalization with overlap
     ethr =  1.00E-13,  avg # of iterations =  1.0

     total cpu time spent up to now is        6.6 secs

     total energy              =     -15.87527539 Ry
     estimated scf accuracy    <          4.0E-12 Ry

     iteration # 21     ecut=    80.00 Ry     beta= 0.15
     Davidson diagonalization with overlap
     ethr =  1.00E-13,  avg # of iterations =  1.8

     total cpu time spent up to now is        6.7 secs

     End of self-consistent calculation

          k =-0.0631 0.0631 0.0631 (  3266 PWs)   bands (ev):

    -5.7917   5.7698   6.2199   6.2199

          k =-0.1892 0.1892-0.0631 (  3280 PWs)   bands (ev):

    -5.5140   4.2425   5.3761   6.1042

          k =-0.3154 0.3154-0.1892 (  3273 PWs)   bands (ev):

    -4.8423   1.9488   4.8799   5.6299

          k =-0.4416 0.4416-0.3154 (  3262 PWs)   bands (ev):

    -3.8969  -0.0094   4.6643   5.2111

          k = 0.4416-0.4416 0.5677 (  3259 PWs)   bands (ev):

    -3.4175  -0.7483   4.7210   4.9832

          k = 0.3154-0.3154 0.4416 (  3270 PWs)   bands (ev):

    -4.2225   0.5724   4.9989   5.0178

          k = 0.1892-0.1892 0.3154 (  3280 PWs)   bands (ev):

    -5.1060   2.7019   5.2779   5.4946

          k = 0.0631-0.0631 0.1892 (  3267 PWs)   bands (ev):

    -5.6522   5.0145   5.7730   5.9494

          k =-0.0631 0.3154 0.0631 (  3278 PWs)   bands (ev):

    -5.3745   4.1219   5.1934   5.2925

          k =-0.1892 0.4416-0.0631 (  3265 PWs)   bands (ev):

    -4.8306   2.5871   4.1811   5.0253

          k =-0.3154 0.5677-0.1892 (  3270 PWs)   bands (ev):

    -3.9495   0.6523   3.6842   4.5935

          k = 0.5677-0.3154 0.6939 (  3258 PWs)   bands (ev):

    -3.1409  -0.6214   3.3895   4.4955

          k = 0.4416-0.1892 0.5677 (  3260 PWs)   bands (ev):

    -3.6293   0.1082   3.3045   4.7954

          k = 0.3154-0.0631 0.4416 (  3272 PWs)   bands (ev):

    -4.5723   1.9127   3.5976   5.3271

          k = 0.1892 0.0631 0.3154 (  3275 PWs)   bands (ev):

    -5.2391   3.4164   4.7746   5.7154

          k =-0.0631 0.5677 0.0631 (  3275 PWs)   bands (ev):

    -4.4162   2.1044   4.0385   4.1696

          k =-0.1892 0.6939-0.0631 (  3266 PWs)   bands (ev):

    -3.6353   0.8340   3.2074   3.8029

          k = 0.6939-0.1892 0.8201 (  3258 PWs)   bands (ev):

    -2.6916  -0.4186   2.3232   3.7709

          k = 0.5677-0.0631 0.6939 (  3254 PWs)   bands (ev):

    -2.7619  -0.3235   1.9460   4.1322

          k = 0.4416 0.0631 0.5677 (  3263 PWs)   bands (ev):

    -3.7019   0.6463   2.5893   4.7468

          k = 0.3154 0.1892 0.4416 (  3273 PWs)   bands (ev):

    -4.4534   1.2611   4.3177   5.2256

          k =-0.0631 0.8201 0.0631 (  3269 PWs)   bands (ev):

    -2.9598  -0.0500   3.3198   3.5573

          k = 0.8201-0.0631 0.9462 (  3268 PWs)   bands (ev):

    -2.0122  -1.0697   2.7197   3.2927

          k = 0.6939 0.0631 0.8201 (  3254 PWs)   bands (ev):

    -2.0961  -0.9091   1.9394   3.6217

          k = 0.5677 0.1892 0.6939 (  3250 PWs)   bands (ev):

    -2.8770  -0.5472   2.5578   4.2513

          k = 0.4416 0.3154 0.5677 (  3258 PWs)   bands (ev):

    -3.5129  -0.4270   4.1469   4.8749

          k =-0.0631-0.9462 0.0631 (  3276 PWs)   bands (ev):

    -2.0698  -1.0911   3.1766   3.4322

          k =-0.1892-0.8201-0.0631 (  3270 PWs)   bands (ev):

    -2.8682  -0.1141   2.8868   3.4581

          k =-0.3154-0.6939-0.1892 (  3264 PWs)   bands (ev):

    -3.3493   0.1057   2.9720   4.0850

          k =-0.0631-0.6939 0.0631 (  3272 PWs)   bands (ev):

    -3.7462   1.0267   3.6069   3.8049

          k =-0.1892-0.5677-0.0631 (  3269 PWs)   bands (ev):

    -4.2934   1.7354   3.6500   4.3393

          k =-0.0631-0.4416 0.0631 (  3260 PWs)   bands (ev):

    -4.9611   3.1462   4.6110   4.6401

          k =-0.1892 0.1892 0.1892 (  3284 PWs)   bands (ev):

    -5.3775   3.4898   5.7648   5.7648

          k =-0.3154 0.3154 0.0631 (  3270 PWs)   bands (ev):

    -4.9704   2.6513   4.1750   5.7938

          k =-0.4416 0.4416-0.0631 (  3275 PWs)   bands (ev):

    -4.1924   1.2558   3.0439   5.2683

          k = 0.4416-0.4416 0.8201 (  3258 PWs)   bands (ev):

    -3.2501  -0.3096   2.9062   4.7136

          k = 0.3154-0.3154 0.6939 (  3262 PWs)   bands (ev):

    -3.2348  -0.3381   3.2250   4.3795

          k = 0.1892-0.1892 0.5677 (  3273 PWs)   bands (ev):

    -4.1765   1.2508   3.8604   4.3500

          k =-0.1892 0.4416 0.1892 (  3274 PWs)   bands (ev):

    -4.7035   1.9580   4.7311   4.7840

          k =-0.3154 0.5677 0.0631 (  3265 PWs)   bands (ev):

    -4.0520   1.2021   3.1040   4.5798

          k = 0.5677-0.3154 0.9462 (  3257 PWs)   bands (ev):

    -3.1194   0.0774   2.2697   3.9754

          k = 0.4416-0.1892 0.8201 (  3257 PWs)   bands (ev):

    -2.6026  -0.5732   2.2847   3.6434

          k = 0.3154-0.0631 0.6939 (  3263 PWs)   bands (ev):

    -3.4208   0.4899   2.7197   3.8342

          k =-0.1892 0.6939 0.1892 (  3257 PWs)   bands (ev):

    -3.5356   0.5376   3.0781   4.0075

          k = 0.6939-0.1892 1.0724 (  3267 PWs)   bands (ev):

    -2.6977  -0.2599   2.4568   3.2653

          k = 0.5677-0.0631 0.9462 (  3259 PWs)   bands (ev):

    -1.8492  -1.0335   2.1097   2.7292

          k = 0.4416 0.0631 0.8201 (  3265 PWs)   bands (ev):

    -2.4773  -0.4796   2.1108   3.2333

          k =-0.1892-1.0724 0.1892 (  3261 PWs)   bands (ev):

    -2.0255  -1.0223   2.2236   3.6532

          k =-0.3154-0.9462 0.0631 (  3263 PWs)   bands (ev):

    -1.9218  -1.0449   2.3227   2.9660

          k =-0.1892-0.8201 0.1892 (  3263 PWs)   bands (ev):

    -2.8002  -0.2285   2.5113   3.7724

          k =-0.3154 0.3154 0.3154 (  3272 PWs)   bands (ev):

    -4.5900   1.2161   5.3428   5.3428

          k =-0.4416 0.4416 0.1892 (  3262 PWs)   bands (ev):

    -4.0893   0.6322   3.8133   5.2550

          k = 0.4416-0.4416 1.0724 (  3255 PWs)   bands (ev):

    -3.2614   0.1308   2.1863   4.6456

          k = 0.3154-0.3154 0.9462 (  3246 PWs)   bands (ev):

    -2.3984  -0.6618   1.8174   4.0745

          k =-0.3154 0.5677 0.3154 (  3274 PWs)   bands (ev):

    -3.7583   0.0487   4.1769   4.6624

          k = 0.5677-0.3154 1.1986 (  3262 PWs)   bands (ev):

    -3.1091  -0.2959   2.7952   4.1511

          k = 0.4416-0.1892 1.0724 (  3258 PWs)   bands (ev):

    -2.2565  -0.7179   1.9136   3.3954

          k =-0.3154-1.1986 0.3154 (  3257 PWs)   bands (ev):

    -2.7314  -0.5737   2.3683   4.1784

          k =-0.4416 0.4416 0.4416 (  3262 PWs)   bands (ev):

    -3.6504  -0.5005   5.1188   5.1188

          k = 0.4416-0.4416 1.3247 (  3258 PWs)   bands (ev):

    -3.2800  -0.6758   3.8441   4.8355

     highest occupied level (ev):     6.2199

!    total energy              =     -15.87527539 Ry
     estimated scf accuracy    <          4.2E-13 Ry

     The total energy is the sum of the following terms:
     one-electron contribution =       4.83886963 Ry
     hartree contribution      =       1.07116803 Ry
     xc contribution           =      -4.83127662 Ry
     ewald contribution        =     -16.95403643 Ry

     convergence has been achieved in  21 iterations


     Computing stress (Cartesian axis) and pressure

          total   stress  (Ry/bohr**3)                   (kbar)     P=        0.63
   0.00000429   0.00000000   0.00000000            0.63        0.00        0.00
  -0.00000000   0.00000429   0.00000000           -0.00        0.63        0.00
  -0.00000000   0.00000000   0.00000429           -0.00        0.00        0.63

     Energy error            =      1.8E-04 Ry
     Gradient error          =      0.0E+00 Ry/Bohr
     Cell gradient error     =      6.3E-01 kbar

     number of scf cycles    =   3
     number of bfgs steps    =   2

     enthalpy           old  =     -15.8750959319 Ry
     enthalpy           new  =     -15.8752753868 Ry

     CASE: enthalpy          _new < enthalpy          _old

     new trust radius        =       0.0007245165 bohr
ibrav =      2
 celldm(1) =     10.16961718
Input lattice vectors:
    -0.49549875     0.00000000     0.49549875
    -0.00000000     0.49549875     0.49549875
    -0.49549875     0.49549875     0.00000000
New lattice vectors in INITIAL alat:
    -0.49549875     0.00000000     0.49549875
     0.00000000     0.49549875     0.49549875
    -0.49549875     0.49549875     0.00000000
New lattice vectors in NEW alat (for information only):
    -0.50000000     0.00000000     0.50000000
     0.00000000     0.50000000     0.50000000
    -0.50000000     0.50000000     0.00000000
Discrepancy in bohr =     0.000000    0.000000    0.000000
     new conv_thr            =            1.0E-12 Ry

     new unit-cell volume =    262.93828 a.u.^3 (    38.96343 Ang^3 )
     density =      2.39389 g/cm^3

CELL_PARAMETERS (alat= 10.26200087)
  -0.495498749   0.000000000   0.495498749
   0.000000000   0.495498749   0.495498749
  -0.495498749   0.495498749   0.000000000

ATOMIC_POSITIONS (crystal)
Si            0.0000000000        0.0000000000        0.0000000000    0   0   0
Si            0.7500000000        0.7500000000        0.7500000000    0   0   0



     Writing config-only to output data dir ./work/Si.save/
     NEW-OLD atomic charge density approx. for the potential

     total cpu time spent up to now is        6.7 secs

     Self-consistent Calculation

     iteration #  1     ecut=    80.00 Ry     beta= 0.15
     Davidson diagonalization with overlap
     ethr =  1.00E-06,  avg # of iterations =  1.0

     Threshold (ethr) on eigenvalues was too large:
     Diagonalizing with lowered threshold

     Davidson diagonalization with overlap
     ethr =  3.90E-09,  avg # of iterations =  2.6

     total cpu time spent up to now is        6.9 secs

     total energy              =     -15.87527586 Ry
     estimated scf accuracy    <       0.00000040 Ry

     iteration #  2     ecut=    80.00 Ry     beta= 0.15
     Davidson diagonalization with overlap
     ethr =  5.02E-09,  avg # of iterations =  1.0

     total cpu time spent up to now is        7.0 secs

     total energy              =     -15.87527572 Ry
     estimated scf accuracy    <       0.00000026 Ry

     iteration #  3     ecut=    80.00 Ry     beta= 0.15
     Davidson diagonalization with overlap
     ethr =  3.30E-09,  avg # of iterations =  2.0

     total cpu time spent up to now is        7.1 secs

     total energy              =     -15.87527576 Ry
     estimated scf accuracy    <          2.6E-09 Ry

     iteration #  4     ecut=    80.00 Ry     beta= 0.15
     Davidson diagonalization with overlap
     ethr =  3.22E-11,  avg # of iterations =  3.2

     total cpu time spent up to now is        7.2 secs

     total energy              =     -15.87527576 Ry
     estimated scf accuracy    <          4.9E-09 Ry

     iteration #  5     ecut=    80.00 Ry     beta= 0.15
     Davidson diagonalization with overlap
     ethr =  3.22E-11,  avg # of iterations =  1.0

     total cpu time spent up to now is        7.3 secs

     total energy              =     -15.87527576 Ry
     estimated scf accuracy    <          5.1E-09 Ry

     iteration #  6     ecut=    80.00 Ry     beta= 0.15
     Davidson diagonalization with overlap
     ethr =  3.22E-11,  avg # of iterations =  1.0

     total cpu time spent up to now is        7.4 secs

     total energy              =     -15.87527576 Ry
     estimated scf accuracy    <          8.8E-10 Ry

     iteration #  7     ecut=    80.00 Ry     beta= 0.15
     Davidson diagonalization with overlap
     ethr =  1.10E-11,  avg # of iterations =  1.0

     total cpu time spent up to now is        7.5 secs

     total energy              =     -15.87527576 Ry
     estimated scf accuracy    <          8.5E-10 Ry

     iteration #  8     ecut=    80.00 Ry     beta= 0.15
     Davidson diagonalization with overlap
     ethr =  1.07E-11,  avg # of iterations =  1.0

     total cpu time spent up to now is        7.5 secs

     total energy              =     -15.87527576 Ry
     estimated scf accuracy    <          6.0E-10 Ry

     iteration #  9     ecut=    80.00 Ry     beta= 0.15
     Davidson diagonalization with overlap
     ethr =  7.45E-12,  avg # of iterations =  2.0

     total cpu time spent up to now is        7.6 secs

     total energy              =     -15.87527576 Ry
     estimated scf accuracy    <          1.0E-11 Ry

     iteration # 10     ecut=    80.00 Ry     beta= 0.15
     Davidson diagonalization with overlap
     ethr =  1.29E-13,  avg # of iterations =  2.6

     total cpu time spent up to now is        7.7 secs

     total energy              =     -15.87527576 Ry
     estimated scf accuracy    <          1.3E-12 Ry

     iteration # 11     ecut=    80.00 Ry     beta= 0.15
     Davidson diagonalization with overlap
     ethr =  1.00E-13,  avg # of iterations =  1.0

     total cpu time spent up to now is        7.8 secs

     End of self-consistent calculation

          k =-0.0631 0.0631 0.0631 (  3266 PWs)   bands (ev):

    -5.7941   5.7627   6.2129   6.2129

          k =-0.1892 0.1892-0.0631 (  3280 PWs)   bands (ev):

    -5.5166   4.2357   5.3696   6.0972

          k =-0.3153 0.3153-0.1892 (  3273 PWs)   bands (ev):

    -4.8453   1.9431   4.8736   5.6232

          k =-0.4415 0.4415-0.3153 (  3262 PWs)   bands (ev):

    -3.9006  -0.0139   4.6580   5.2045

          k = 0.4415-0.4415 0.5676 (  3259 PWs)   bands (ev):

    -3.4216  -0.7523   4.7146   4.9768

          k = 0.3153-0.3153 0.4415 (  3270 PWs)   bands (ev):

    -4.2259   0.5675   4.9925   5.0112

          k = 0.1892-0.1892 0.3153 (  3280 PWs)   bands (ev):

    -5.1089   2.6959   5.2714   5.4878

          k = 0.0631-0.0631 0.1892 (  3267 PWs)   bands (ev):

    -5.6547   5.0074   5.7663   5.9424

          k =-0.0631 0.3153 0.0631 (  3278 PWs)   bands (ev):

    -5.3771   4.1148   5.1871   5.2859

          k =-0.1892 0.4415-0.0631 (  3265 PWs)   bands (ev):

    -4.8336   2.5805   4.1753   5.0189

          k =-0.3153 0.5676-0.1892 (  3270 PWs)   bands (ev):

    -3.9531   0.6470   3.6784   4.5874

          k = 0.5676-0.3153 0.6937 (  3258 PWs)   bands (ev):

    -3.1452  -0.6256   3.3838   4.4895

          k = 0.4415-0.1892 0.5676 (  3260 PWs)   bands (ev):

    -3.6331   0.1033   3.2990   4.7892

          k = 0.3153-0.0631 0.4415 (  3272 PWs)   bands (ev):

    -4.5755   1.9066   3.5922   5.3205

          k = 0.1892 0.0631 0.3153 (  3275 PWs)   bands (ev):

    -5.2419   3.4098   4.7685   5.7085

          k =-0.0631 0.5676 0.0631 (  3275 PWs)   bands (ev):

    -4.4195   2.0975   4.0329   4.1639

          k =-0.1892 0.6937-0.0631 (  3266 PWs)   bands (ev):

    -3.6390   0.8278   3.2024   3.7974

          k = 0.6937-0.1892 0.8199 (  3258 PWs)   bands (ev):

    -2.6960  -0.4239   2.3187   3.7655

          k = 0.5676-0.0631 0.6937 (  3254 PWs)   bands (ev):

    -2.7663  -0.3288   1.9418   4.1265

          k = 0.4415 0.0631 0.5676 (  3263 PWs)   bands (ev):

    -3.7056   0.6406   2.5845   4.7407

          k = 0.3153 0.1892 0.4415 (  3273 PWs)   bands (ev):

    -4.4566   1.2556   4.3116   5.2190

          k =-0.0631 0.8199 0.0631 (  3269 PWs)   bands (ev):

    -2.9638  -0.0558   3.3147   3.5519

          k = 0.8199-0.0631 0.9460 (  3268 PWs)   bands (ev):

    -2.0169  -1.0750   2.7151   3.2875

          k = 0.6937 0.0631 0.8199 (  3254 PWs)   bands (ev):

    -2.1009  -0.9143   1.9354   3.6163

          k = 0.5676 0.1892 0.6937 (  3250 PWs)   bands (ev):

    -2.8814  -0.5518   2.5528   4.2455

          k = 0.4415 0.3153 0.5676 (  3258 PWs)   bands (ev):

    -3.5169  -0.4313   4.1408   4.8686

          k =-0.0631-0.9460 0.0631 (  3276 PWs)   bands (ev):

    -2.0744  -1.0963   3.1716   3.4269

          k =-0.1892-0.8199-0.0631 (  3270 PWs)   bands (ev):

    -2.8723  -0.1198   2.8820   3.4529

          k =-0.3153-0.6937-0.1892 (  3264 PWs)   bands (ev):

    -3.3533   0.1004   2.9667   4.0793

          k =-0.0631-0.6937 0.0631 (  3272 PWs)   bands (ev):

    -3.7498   1.0204   3.6016   3.7994

          k =-0.1892-0.5676-0.0631 (  3269 PWs)   bands (ev):

    -4.2967   1.7290   3.6446   4.3334

          k =-0.0631-0.4415 0.0631 (  3260 PWs)   bands (ev):

    -4.9640   3.1392   4.6049   4.6342

          k =-0.1892 0.1892 0.1892 (  3284 PWs)   bands (ev):

    -5.3801   3.4834   5.7580   5.7580

          k =-0.3153 0.3153 0.0631 (  3270 PWs)   bands (ev):

    -4.9733   2.6449   4.1692   5.7869

          k =-0.4415 0.4415-0.0631 (  3275 PWs)   bands (ev):

    -4.1958   1.2500   3.0389   5.2618

          k = 0.4415-0.4415 0.8199 (  3258 PWs)   bands (ev):

    -3.2542  -0.3143   2.9009   4.7074

          k = 0.3153-0.3153 0.6937 (  3262 PWs)   bands (ev):

    -3.2390  -0.3427   3.2195   4.3736

          k = 0.1892-0.1892 0.5676 (  3273 PWs)   bands (ev):

    -4.1798   1.2449   3.8545   4.3441

          k =-0.1892 0.4415 0.1892 (  3274 PWs)   bands (ev):

    -4.7066   1.9521   4.7246   4.7779

          k =-0.3153 0.5676 0.0631 (  3265 PWs)   bands (ev):

    -4.0554   1.1961   3.0989   4.5738

          k = 0.5676-0.3153 0.9460 (  3257 PWs)   bands (ev):

    -3.1235   0.0718   2.2652   3.9699

          k = 0.4415-0.1892 0.8199 (  3257 PWs)   bands (ev):

    -2.6071  -0.5781   2.2801   3.6381

          k = 0.3153-0.0631 0.6937 (  3263 PWs)   bands (ev):

    -3.4247   0.4840   2.7149   3.8288

          k =-0.1892 0.6937 0.1892 (  3257 PWs)   bands (ev):

    -3.5394   0.5318   3.0729   4.0018

          k = 0.6937-0.1892 1.0722 (  3267 PWs)   bands (ev):

    -2.7020  -0.2655   2.4523   3.2604

          k = 0.5676-0.0631 0.9460 (  3259 PWs)   bands (ev):

    -1.8542  -1.0388   2.1056   2.7247

          k = 0.4415 0.0631 0.8199 (  3265 PWs)   bands (ev):

    -2.4819  -0.4850   2.1065   3.2284

          k =-0.1892-1.0722 0.1892 (  3261 PWs)   bands (ev):

    -2.0303  -1.0275   2.2194   3.6477

          k =-0.3153-0.9460 0.0631 (  3263 PWs)   bands (ev):

    -1.9266  -1.0502   2.3184   2.9613

          k =-0.1892-0.8199 0.1892 (  3263 PWs)   bands (ev):

    -2.8045  -0.2341   2.5068   3.7669

          k =-0.3153 0.3153 0.3153 (  3272 PWs)   bands (ev):

    -4.5931   1.2108   5.3362   5.3362

          k =-0.4415 0.4415 0.1892 (  3262 PWs)   bands (ev):

    -4.0928   0.6271   3.8075   5.2485

          k = 0.4415-0.4415 1.0722 (  3255 PWs)   bands (ev):

    -3.2654   0.1254   2.1819   4.6395

          k = 0.3153-0.3153 0.9460 (  3246 PWs)   bands (ev):

    -2.4031  -0.6669   1.8134   4.0687

          k =-0.3153 0.5676 0.3153 (  3274 PWs)   bands (ev):

    -3.7621   0.0440   4.1707   4.6563

          k = 0.5676-0.3153 1.1983 (  3262 PWs)   bands (ev):

    -3.1133  -0.3008   2.7900   4.1455

          k = 0.4415-0.1892 1.0722 (  3258 PWs)   bands (ev):

    -2.2613  -0.7232   1.9095   3.3903

          k =-0.3153-1.1983 0.3153 (  3257 PWs)   bands (ev):

    -2.7359  -0.5785   2.3636   4.1726

          k =-0.4415 0.4415 0.4415 (  3262 PWs)   bands (ev):

    -3.6543  -0.5047   5.1123   5.1123

          k = 0.4415-0.4415 1.3244 (  3258 PWs)   bands (ev):

    -3.2842  -0.6799   3.8382   4.8293

     highest occupied level (ev):     6.2129

!    total energy              =     -15.87527576 Ry
     estimated scf accuracy    <          9.6E-13 Ry

     The total energy is the sum of the following terms:
     one-electron contribution =       4.83379475 Ry
     hartree contribution      =       1.07172075 Ry
     xc contribution           =      -4.83054285 Ry
     ewald contribution        =     -16.95024841 Ry

     convergence has been achieved in  11 iterations


     Computing stress (Cartesian axis) and pressure

          total   stress  (Ry/bohr**3)                   (kbar)     P=       -0.01
  -0.00000010  -0.00000000   0.00000000           -0.01       -0.00        0.00
  -0.00000000  -0.00000010  -0.00000000           -0.00       -0.01       -0.00
   0.00000000  -0.00000000  -0.00000010            0.00       -0.00       -0.01

     Energy error            =      3.7E-07 Ry
     Gradient error          =      0.0E+00 Ry/Bohr
     Cell gradient error     =      1.5E-02 kbar
ibrav =      2
 celldm(1) =     10.16961718
Input lattice vectors:
    -0.49549875     0.00000000     0.49549875
     0.00000000     0.49549875     0.49549875
    -0.49549875     0.49549875     0.00000000
New lattice vectors in INITIAL alat:
    -0.49549875     0.00000000     0.49549875
     0.00000000     0.49549875     0.49549875
    -0.49549875     0.49549875     0.00000000
New lattice vectors in NEW alat (for information only):
    -0.50000000     0.00000000     0.50000000
     0.00000000     0.50000000     0.50000000
    -0.50000000     0.50000000     0.00000000
Discrepancy in bohr =     0.000000    0.000000    0.000000

     bfgs converged in   4 scf cycles and   3 bfgs steps
     (criteria: energy <  1.0E-06 Ry, force <  1.0E-05 Ry/Bohr, cell <  5.0E-02 kbar)

     End of BFGS Geometry Optimization

     Final enthalpy           =     -15.8752757562 Ry

     File ./work/Si.bfgs deleted, as requested
Begin final coordinates
     new unit-cell volume =    262.93828 a.u.^3 (    38.96343 Ang^3 )
     density =      2.39389 g/cm^3

CELL_PARAMETERS (alat= 10.26200087)
  -0.495498749   0.000000000   0.495498749
   0.000000000   0.495498749   0.495498749
  -0.495498749   0.495498749   0.000000000

ATOMIC_POSITIONS (crystal)
Si            0.0000000000        0.0000000000        0.0000000000    0   0   0
Si            0.7500000000        0.7500000000        0.7500000000    0   0   0
End final coordinates



     Writing config-only to output data dir ./work/Si.save/

     Final scf calculation at the relaxed structure.
     The G-vectors are recalculated for the final unit cell
     Results may differ from those at the preceding step.
 
     Parallelization info
     --------------------
     sticks:   dense  smooth     PW     G-vecs:    dense   smooth      PW
     Min          57      57     17                 1275     1275     213
     Max          58      58     18                 1277     1277     216
     Sum        1147    1147    349                25509    25509    4279
 
     Using Slab Decomposition
 


     bravais-lattice index     =            2
     lattice parameter (alat)  =      10.2620  a.u.
     unit-cell volume          =     262.9383 (a.u.)^3
     number of atoms/cell      =            2
     number of atomic types    =            1
     number of electrons       =         8.00
     number of Kohn-Sham states=            4
     kinetic-energy cutoff     =      80.0000  Ry
     charge density cutoff     =     320.0000  Ry
     scf convergence threshold =      1.0E-12
     mixing beta               =       0.1500
     number of iterations used =            8  plain     mixing
     press convergence thresh. =      5.0E-02
     Exchange-correlation= SLA-PZ-NOGX-NOGC
                           (   1   1   0   0   0   0   0)

     celldm(1)=  10.262001  celldm(2)=   0.000000  celldm(3)=   0.000000
     celldm(4)=   0.000000  celldm(5)=   0.000000  celldm(6)=   0.000000

     crystal axes: (cart. coord. in units of alat)
               a(1) = (  -0.495499   0.000000   0.495499 )  
               a(2) = (   0.000000   0.495499   0.495499 )  
               a(3) = (  -0.495499   0.495499   0.000000 )  

     reciprocal axes: (cart. coord. in units 2 pi/alat)
               b(1) = ( -1.009084 -1.009084  1.009084 )  
               b(2) = (  1.009084  1.009084  1.009084 )  
               b(3) = ( -1.009084  1.009084 -1.009084 )  


     PseudoPot. # 1 for Si read from file:
     ../pseudo/Si.pz-hgh.UPF
     MD5 check sum: cb84f9316d534d44e00c22e249e735ab
     Pseudo is Norm-conserving, Zval =  4.0
     Generated in analytical, separable form
     Using radial grid of 1141 points,  3 beta functions with: 
                l(1) =   0
                l(2) =   0
                l(3) =   1

     atomic species   valence    mass     pseudopotential
        Si             4.00    28.08550     Si( 1.00)

     48 Sym. Ops., with inversion, found (24 have fractional translation)



   Cartesian axes

     site n.     atom                  positions (alat units)
         1           Si  tau(   1) = (   0.0000000   0.0000000   0.0000000  )
         2           Si  tau(   2) = (  -0.7432481   0.7432481   0.7432481  )

     number of k points=    60
                       cart. coord. in units 2pi/alat
        k(    1) = (  -0.0630678   0.0630678   0.0630678), wk =   0.0078125
        k(    2) = (  -0.1892033   0.1892033  -0.0630678), wk =   0.0234375
        k(    3) = (  -0.3153388   0.3153388  -0.1892033), wk =   0.0234375
        k(    4) = (  -0.4414744   0.4414744  -0.3153388), wk =   0.0234375
        k(    5) = (   0.4414744  -0.4414744   0.5676099), wk =   0.0234375
        k(    6) = (   0.3153388  -0.3153388   0.4414744), wk =   0.0234375
        k(    7) = (   0.1892033  -0.1892033   0.3153388), wk =   0.0234375
        k(    8) = (   0.0630678  -0.0630678   0.1892033), wk =   0.0234375
        k(    9) = (  -0.0630678   0.3153388   0.0630678), wk =   0.0234375
        k(   10) = (  -0.1892033   0.4414744  -0.0630678), wk =   0.0468750
        k(   11) = (  -0.3153388   0.5676099  -0.1892033), wk =   0.0468750
        k(   12) = (   0.5676099  -0.3153388   0.6937454), wk =   0.0468750
        k(   13) = (   0.4414744  -0.1892033   0.5676099), wk =   0.0468750
        k(   14) = (   0.3153388  -0.0630678   0.4414744), wk =   0.0468750
        k(   15) = (   0.1892033   0.0630678   0.3153388), wk =   0.0468750
        k(   16) = (  -0.0630678   0.5676099   0.0630678), wk =   0.0234375
        k(   17) = (  -0.1892033   0.6937454  -0.0630678), wk =   0.0468750
        k(   18) = (   0.6937454  -0.1892033   0.8198810), wk =   0.0468750
        k(   19) = (   0.5676099  -0.0630678   0.6937454), wk =   0.0468750
        k(   20) = (   0.4414744   0.0630678   0.5676099), wk =   0.0468750
        k(   21) = (   0.3153388   0.1892033   0.4414744), wk =   0.0468750
        k(   22) = (  -0.0630678   0.8198810   0.0630678), wk =   0.0234375
        k(   23) = (   0.8198810  -0.0630678   0.9460165), wk =   0.0468750
        k(   24) = (   0.6937454   0.0630678   0.8198810), wk =   0.0468750
        k(   25) = (   0.5676099   0.1892033   0.6937454), wk =   0.0468750
        k(   26) = (   0.4414744   0.3153388   0.5676099), wk =   0.0468750
        k(   27) = (  -0.0630678  -0.9460165   0.0630678), wk =   0.0234375
        k(   28) = (  -0.1892033  -0.8198810  -0.0630678), wk =   0.0468750
        k(   29) = (  -0.3153388  -0.6937454  -0.1892033), wk =   0.0468750
        k(   30) = (  -0.0630678  -0.6937454   0.0630678), wk =   0.0234375
        k(   31) = (  -0.1892033  -0.5676099  -0.0630678), wk =   0.0468750
        k(   32) = (  -0.0630678  -0.4414744   0.0630678), wk =   0.0234375
        k(   33) = (  -0.1892033   0.1892033   0.1892033), wk =   0.0078125
        k(   34) = (  -0.3153388   0.3153388   0.0630678), wk =   0.0234375
        k(   35) = (  -0.4414744   0.4414744  -0.0630678), wk =   0.0234375
        k(   36) = (   0.4414744  -0.4414744   0.8198810), wk =   0.0234375
        k(   37) = (   0.3153388  -0.3153388   0.6937454), wk =   0.0234375
        k(   38) = (   0.1892033  -0.1892033   0.5676099), wk =   0.0234375
        k(   39) = (  -0.1892033   0.4414744   0.1892033), wk =   0.0234375
        k(   40) = (  -0.3153388   0.5676099   0.0630678), wk =   0.0468750
        k(   41) = (   0.5676099  -0.3153388   0.9460165), wk =   0.0468750
        k(   42) = (   0.4414744  -0.1892033   0.8198810), wk =   0.0468750
        k(   43) = (   0.3153388  -0.0630678   0.6937454), wk =   0.0468750
        k(   44) = (  -0.1892033   0.6937454   0.1892033), wk =   0.0234375
        k(   45) = (   0.6937454  -0.1892033   1.0721521), wk =   0.0468750
        k(   46) = (   0.5676099  -0.0630678   0.9460165), wk =   0.0468750
        k(   47) = (   0.4414744   0.0630678   0.8198810), wk =   0.0468750
        k(   48) = (  -0.1892033  -1.0721521   0.1892033), wk =   0.0234375
        k(   49) = (  -0.3153388  -0.9460165   0.0630678), wk =   0.0468750
        k(   50) = (  -0.1892033  -0.8198810   0.1892033), wk =   0.0234375
        k(   51) = (  -0.3153388   0.3153388   0.3153388), wk =   0.0078125
        k(   52) = (  -0.4414744   0.4414744   0.1892033), wk =   0.0234375
        k(   53) = (   0.4414744  -0.4414744   1.0721521), wk =   0.0234375
        k(   54) = (   0.3153388  -0.3153388   0.9460165), wk =   0.0234375
        k(   55) = (  -0.3153388   0.5676099   0.3153388), wk =   0.0234375
        k(   56) = (   0.5676099  -0.3153388   1.1982876), wk =   0.0468750
        k(   57) = (   0.4414744  -0.1892033   1.0721521), wk =   0.0468750
        k(   58) = (  -0.3153388  -1.1982876   0.3153388), wk =   0.0234375
        k(   59) = (  -0.4414744   0.4414744   0.4414744), wk =   0.0078125
        k(   60) = (   0.4414744  -0.4414744   1.3244231), wk =   0.0234375

     Dense  grid:    25509 G-vectors     FFT dimensions: (  48,  48,  48)

     Estimated max dynamical RAM per process >       2.65 MB

     Estimated total dynamical RAM >      53.09 MB

     Initial potential from superposition of free atoms

     Starting from uniform charge
     Starting wfcs are random

     total cpu time spent up to now is        7.9 secs

     Self-consistent Calculation

     iteration #  1     ecut=    80.00 Ry     beta= 0.15
     Davidson diagonalization with overlap
     c_bands:  3 eigenvalues not converged
     c_bands:  2 eigenvalues not converged
     c_bands:  3 eigenvalues not converged
     c_bands:  3 eigenvalues not converged
     c_bands:  2 eigenvalues not converged
     c_bands:  2 eigenvalues not converged
     c_bands:  1 eigenvalues not converged
     c_bands:  1 eigenvalues not converged
     c_bands:  1 eigenvalues not converged
     ethr =  1.00E-06,  avg # of iterations = 16.9

     total cpu time spent up to now is        8.4 secs

     total energy              =     -16.44162824 Ry
     estimated scf accuracy    <       1.86588386 Ry

     iteration #  2     ecut=    80.00 Ry     beta= 0.15
     Davidson diagonalization with overlap
     ethr =  1.00E-02,  avg # of iterations =  1.0

     total cpu time spent up to now is        8.5 secs

     total energy              =     -15.70223239 Ry
     estimated scf accuracy    <       1.24285341 Ry

     iteration #  3     ecut=    80.00 Ry     beta= 0.15
     Davidson diagonalization with overlap
     ethr =  1.00E-02,  avg # of iterations =  2.0

     total cpu time spent up to now is        8.6 secs

     total energy              =     -15.87156033 Ry
     estimated scf accuracy    <       0.01296310 Ry

     iteration #  4     ecut=    80.00 Ry     beta= 0.15
     Davidson diagonalization with overlap
     ethr =  1.62E-04,  avg # of iterations =  2.7

     negative rho (up, down):  6.016E-06 0.000E+00

     total cpu time spent up to now is        8.7 secs

     total energy              =     -15.88719954 Ry
     estimated scf accuracy    <       0.00659411 Ry

     iteration #  5     ecut=    80.00 Ry     beta= 0.15
     Davidson diagonalization with overlap
     ethr =  8.24E-05,  avg # of iterations =  2.7

     negative rho (up, down):  8.227E-07 0.000E+00

     total cpu time spent up to now is        8.8 secs

     total energy              =     -15.87045911 Ry
     estimated scf accuracy    <       0.04577441 Ry

     iteration #  6     ecut=    80.00 Ry     beta= 0.15
     Davidson diagonalization with overlap
     ethr =  8.24E-05,  avg # of iterations =  2.1

     negative rho (up, down):  6.431E-07 0.000E+00

     total cpu time spent up to now is        9.0 secs

     total energy              =     -15.87516898 Ry
     estimated scf accuracy    <       0.00003290 Ry

     iteration #  7     ecut=    80.00 Ry     beta= 0.15
     Davidson diagonalization with overlap
     ethr =  4.11E-07,  avg # of iterations =  5.8

     negative rho (up, down):  4.315E-07 0.000E+00

     total cpu time spent up to now is        9.1 secs

     total energy              =     -15.87527333 Ry
     estimated scf accuracy    <       0.00000132 Ry

     iteration #  8     ecut=    80.00 Ry     beta= 0.15
     Davidson diagonalization with overlap
     ethr =  1.65E-08,  avg # of iterations =  3.5

     total cpu time spent up to now is        9.3 secs

     total energy              =     -15.87530107 Ry
     estimated scf accuracy    <       0.00000100 Ry

     iteration #  9     ecut=    80.00 Ry     beta= 0.15
     Davidson diagonalization with overlap
     ethr =  1.25E-08,  avg # of iterations =  5.2

     total cpu time spent up to now is        9.4 secs

     total energy              =     -15.87530015 Ry
     estimated scf accuracy    <       0.00010154 Ry

     iteration # 10     ecut=    80.00 Ry     beta= 0.15
     Davidson diagonalization with overlap
     ethr =  1.25E-08,  avg # of iterations =  2.0

     total cpu time spent up to now is        9.6 secs

     total energy              =     -15.87527634 Ry
     estimated scf accuracy    <       0.00006780 Ry

     iteration # 11     ecut=    80.00 Ry     beta= 0.15
     Davidson diagonalization with overlap
     ethr =  1.25E-08,  avg # of iterations =  3.7

     total cpu time spent up to now is        9.7 secs

     total energy              =     -15.87527904 Ry
     estimated scf accuracy    <       0.00001225 Ry

     iteration # 12     ecut=    80.00 Ry     beta= 0.15
     Davidson diagonalization with overlap
     ethr =  1.25E-08,  avg # of iterations =  1.0

     total cpu time spent up to now is        9.8 secs

     total energy              =     -15.87527951 Ry
     estimated scf accuracy    <       0.00001235 Ry

     iteration # 13     ecut=    80.00 Ry     beta= 0.15
     Davidson diagonalization with overlap
     ethr =  1.25E-08,  avg # of iterations =  1.0

     total cpu time spent up to now is        9.9 secs

     total energy              =     -15.87527770 Ry
     estimated scf accuracy    <       0.00001339 Ry

     iteration # 14     ecut=    80.00 Ry     beta= 0.15
     Davidson diagonalization with overlap
     ethr =  1.25E-08,  avg # of iterations =  1.0

     total cpu time spent up to now is        9.9 secs

     total energy              =     -15.87527469 Ry
     estimated scf accuracy    <       0.00000898 Ry

     iteration # 15     ecut=    80.00 Ry     beta= 0.15
     Davidson diagonalization with overlap
     ethr =  1.25E-08,  avg # of iterations =  2.0

     total cpu time spent up to now is       10.1 secs

     total energy              =     -15.87527404 Ry
     estimated scf accuracy    <       0.00000195 Ry

     iteration # 16     ecut=    80.00 Ry     beta= 0.15
     Davidson diagonalization with overlap
     ethr =  1.25E-08,  avg # of iterations =  2.0

     total cpu time spent up to now is       10.2 secs

     total energy              =     -15.87527431 Ry
     estimated scf accuracy    <          9.5E-10 Ry

     iteration # 17     ecut=    80.00 Ry     beta= 0.15
     Davidson diagonalization with overlap
     ethr =  1.19E-11,  avg # of iterations =  7.2

     total cpu time spent up to now is       10.4 secs

     total energy              =     -15.87527433 Ry
     estimated scf accuracy    <          8.0E-10 Ry

     iteration # 18     ecut=    80.00 Ry     beta= 0.15
     Davidson diagonalization with overlap
     ethr =  1.00E-11,  avg # of iterations =  2.0

     total cpu time spent up to now is       10.5 secs

     total energy              =     -15.87527433 Ry
     estimated scf accuracy    <          1.3E-10 Ry

     iteration # 19     ecut=    80.00 Ry     beta= 0.15
     Davidson diagonalization with overlap
     ethr =  1.67E-12,  avg # of iterations =  4.5

     total cpu time spent up to now is       10.7 secs

     total energy              =     -15.87527433 Ry
     estimated scf accuracy    <          8.2E-09 Ry

     iteration # 20     ecut=    80.00 Ry     beta= 0.15
     Davidson diagonalization with overlap
     ethr =  1.67E-12,  avg # of iterations =  3.1

     total cpu time spent up to now is       10.8 secs

     total energy              =     -15.87527433 Ry
     estimated scf accuracy    <          1.8E-09 Ry

     iteration # 21     ecut=    80.00 Ry     beta= 0.15
     Davidson diagonalization with overlap
     ethr =  1.67E-12,  avg # of iterations =  2.0

     total cpu time spent up to now is       10.9 secs

     total energy              =     -15.87527433 Ry
     estimated scf accuracy    <          3.7E-09 Ry

     iteration # 22     ecut=    80.00 Ry     beta= 0.15
     Davidson diagonalization with overlap
     ethr =  1.67E-12,  avg # of iterations =  4.2

     total cpu time spent up to now is       11.1 secs

     total energy              =     -15.87527433 Ry
     estimated scf accuracy    <          5.6E-10 Ry

     iteration # 23     ecut=    80.00 Ry     beta= 0.15
     Davidson diagonalization with overlap
     ethr =  1.67E-12,  avg # of iterations =  1.8

     total cpu time spent up to now is       11.2 secs

     total energy              =     -15.87527433 Ry
     estimated scf accuracy    <          1.7E-10 Ry

     iteration # 24     ecut=    80.00 Ry     beta= 0.15
     Davidson diagonalization with overlap
     ethr =  1.67E-12,  avg # of iterations =  2.0

     total cpu time spent up to now is       11.3 secs

     total energy              =     -15.87527433 Ry
     estimated scf accuracy    <          4.8E-11 Ry

     iteration # 25     ecut=    80.00 Ry     beta= 0.15
     Davidson diagonalization with overlap
     ethr =  5.99E-13,  avg # of iterations =  1.3

     total cpu time spent up to now is       11.4 secs

     total energy              =     -15.87527433 Ry
     estimated scf accuracy    <          9.8E-11 Ry

     iteration # 26     ecut=    80.00 Ry     beta= 0.15
     Davidson diagonalization with overlap
     ethr =  5.99E-13,  avg # of iterations =  2.0

     total cpu time spent up to now is       11.5 secs

     End of self-consistent calculation

          k =-0.0631 0.0631 0.0631 (  3158 PWs)   bands (ev):

    -5.7941   5.7627   6.2129   6.2129

          k =-0.1892 0.1892-0.0631 (  3183 PWs)   bands (ev):

    -5.5166   4.2357   5.3696   6.0972

          k =-0.3153 0.3153-0.1892 (  3182 PWs)   bands (ev):

    -4.8453   1.9431   4.8736   5.6232

          k =-0.4415 0.4415-0.3153 (  3185 PWs)   bands (ev):

    -3.9006  -0.0139   4.6580   5.2045

          k = 0.4415-0.4415 0.5676 (  3176 PWs)   bands (ev):

    -3.4216  -0.7523   4.7146   4.9768

          k = 0.3153-0.3153 0.4415 (  3173 PWs)   bands (ev):

    -4.2259   0.5675   4.9925   5.0112

          k = 0.1892-0.1892 0.3153 (  3179 PWs)   bands (ev):

    -5.1089   2.6959   5.2714   5.4878

          k = 0.0631-0.0631 0.1892 (  3181 PWs)   bands (ev):

    -5.6547   5.0074   5.7663   5.9424

          k =-0.0631 0.3153 0.0631 (  3182 PWs)   bands (ev):

    -5.3771   4.1148   5.1871   5.2859

          k =-0.1892 0.4415-0.0631 (  3181 PWs)   bands (ev):

    -4.8336   2.5805   4.1754   5.0189

          k =-0.3153 0.5676-0.1892 (  3177 PWs)   bands (ev):

    -3.9531   0.6470   3.6784   4.5874

          k = 0.5676-0.3153 0.6937 (  3176 PWs)   bands (ev):

    -3.1452  -0.6256   3.3838   4.4895

          k = 0.4415-0.1892 0.5676 (  3171 PWs)   bands (ev):

    -3.6331   0.1033   3.2990   4.7892

          k = 0.3153-0.0631 0.4415 (  3171 PWs)   bands (ev):

    -4.5755   1.9066   3.5922   5.3205

          k = 0.1892 0.0631 0.3153 (  3183 PWs)   bands (ev):

    -5.2419   3.4098   4.7685   5.7085

          k =-0.0631 0.5676 0.0631 (  3171 PWs)   bands (ev):

    -4.4195   2.0976   4.0329   4.1639

          k =-0.1892 0.6937-0.0631 (  3172 PWs)   bands (ev):

    -3.6390   0.8278   3.2024   3.7974

          k = 0.6937-0.1892 0.8199 (  3177 PWs)   bands (ev):

    -2.6960  -0.4239   2.3187   3.7655

          k = 0.5676-0.0631 0.6937 (  3177 PWs)   bands (ev):

    -2.7663  -0.3288   1.9418   4.1265

          k = 0.4415 0.0631 0.5676 (  3164 PWs)   bands (ev):

    -3.7056   0.6406   2.5845   4.7407

          k = 0.3153 0.1892 0.4415 (  3176 PWs)   bands (ev):

    -4.4566   1.2556   4.3116   5.2190

          k =-0.0631 0.8199 0.0631 (  3184 PWs)   bands (ev):

    -2.9638  -0.0558   3.3147   3.5519

          k = 0.8199-0.0631 0.9460 (  3187 PWs)   bands (ev):

    -2.0169  -1.0750   2.7151   3.2875

          k = 0.6937 0.0631 0.8199 (  3181 PWs)   bands (ev):

    -2.1009  -0.9143   1.9354   3.6163

          k = 0.5676 0.1892 0.6937 (  3181 PWs)   bands (ev):

    -2.8814  -0.5518   2.5528   4.2455

          k = 0.4415 0.3153 0.5676 (  3178 PWs)   bands (ev):

    -3.5169  -0.4313   4.1408   4.8686

          k =-0.0631-0.9460 0.0631 (  3198 PWs)   bands (ev):

    -2.0744  -1.0963   3.1716   3.4269

          k =-0.1892-0.8199-0.0631 (  3182 PWs)   bands (ev):

    -2.8723  -0.1198   2.8820   3.4529

          k =-0.3153-0.6937-0.1892 (  3174 PWs)   bands (ev):

    -3.3533   0.1004   2.9667   4.0793

          k =-0.0631-0.6937 0.0631 (  3179 PWs)   bands (ev):

    -3.7498   1.0204   3.6016   3.7994

          k =-0.1892-0.5676-0.0631 (  3175 PWs)   bands (ev):

    -4.2967   1.7290   3.6446   4.3334

          k =-0.0631-0.4415 0.0631 (  3186 PWs)   bands (ev):

    -4.9640   3.1392   4.6049   4.6342

          k =-0.1892 0.1892 0.1892 (  3170 PWs)   bands (ev):

    -5.3801   3.4835   5.7580   5.7580

          k =-0.3153 0.3153 0.0631 (  3180 PWs)   bands (ev):

    -4.9733   2.6449   4.1692   5.7869

          k =-0.4415 0.4415-0.0631 (  3160 PWs)   bands (ev):

    -4.1958   1.2500   3.0389   5.2618

          k = 0.4415-0.4415 0.8199 (  3175 PWs)   bands (ev):

    -3.2542  -0.3143   2.9010   4.7074

          k = 0.3153-0.3153 0.6937 (  3179 PWs)   bands (ev):

    -3.2390  -0.3427   3.2195   4.3736

          k = 0.1892-0.1892 0.5676 (  3177 PWs)   bands (ev):

    -4.1798   1.2450   3.8545   4.3441

          k =-0.1892 0.4415 0.1892 (  3180 PWs)   bands (ev):

    -4.7066   1.9521   4.7246   4.7779

          k =-0.3153 0.5676 0.0631 (  3172 PWs)   bands (ev):

    -4.0554   1.1961   3.0989   4.5738

          k = 0.5676-0.3153 0.9460 (  3177 PWs)   bands (ev):

    -3.1235   0.0718   2.2652   3.9699

          k = 0.4415-0.1892 0.8199 (  3177 PWs)   bands (ev):

    -2.6071  -0.5781   2.2801   3.6381

          k = 0.3153-0.0631 0.6937 (  3180 PWs)   bands (ev):

    -3.4247   0.4840   2.7149   3.8288

          k =-0.1892 0.6937 0.1892 (  3179 PWs)   bands (ev):

    -3.5394   0.5318   3.0729   4.0018

          k = 0.6937-0.1892 1.0722 (  3173 PWs)   bands (ev):

    -2.7020  -0.2655   2.4523   3.2604

          k = 0.5676-0.0631 0.9460 (  3187 PWs)   bands (ev):

    -1.8542  -1.0388   2.1056   2.7247

          k = 0.4415 0.0631 0.8199 (  3174 PWs)   bands (ev):

    -2.4819  -0.4850   2.1065   3.2284

          k =-0.1892-1.0722 0.1892 (  3190 PWs)   bands (ev):

    -2.0303  -1.0275   2.2194   3.6477

          k =-0.3153-0.9460 0.0631 (  3179 PWs)   bands (ev):

    -1.9266  -1.0502   2.3184   2.9613

          k =-0.1892-0.8199 0.1892 (  3181 PWs)   bands (ev):

    -2.8045  -0.2341   2.5068   3.7669

          k =-0.3153 0.3153 0.3153 (  3173 PWs)   bands (ev):

    -4.5931   1.2108   5.3362   5.3362

          k =-0.4415 0.4415 0.1892 (  3170 PWs)   bands (ev):

    -4.0928   0.6271   3.8075   5.2485

          k = 0.4415-0.4415 1.0722 (  3169 PWs)   bands (ev):

    -3.2654   0.1254   2.1819   4.6395

          k = 0.3153-0.3153 0.9460 (  3188 PWs)   bands (ev):

    -2.4031  -0.6669   1.8134   4.0687

          k =-0.3153 0.5676 0.3153 (  3176 PWs)   bands (ev):

    -3.7621   0.0440   4.1707   4.6563

          k = 0.5676-0.3153 1.1983 (  3180 PWs)   bands (ev):

    -3.1133  -0.3008   2.7900   4.1455

          k = 0.4415-0.1892 1.0722 (  3181 PWs)   bands (ev):

    -2.2613  -0.7232   1.9095   3.3903

          k =-0.3153-1.1983 0.3153 (  3180 PWs)   bands (ev):

    -2.7359  -0.5785   2.3636   4.1726

          k =-0.4415 0.4415 0.4415 (  3178 PWs)   bands (ev):

    -3.6543  -0.5047   5.1123   5.1123

          k = 0.4415-0.4415 1.3244 (  3177 PWs)   bands (ev):

    -3.2842  -0.6799   3.8382   4.8293

     highest occupied level (ev):     6.2129

!    total energy              =     -15.87527433 Ry
     estimated scf accuracy    <          6.1E-13 Ry

     The total energy is the sum of the following terms:
     one-electron contribution =       4.83379610 Ry
     hartree contribution      =       1.07172067 Ry
     xc contribution           =      -4.83054269 Ry
     ewald contribution        =     -16.95024841 Ry

     convergence has been achieved in  26 iterations


     Computing stress (Cartesian axis) and pressure

          total   stress  (Ry/bohr**3)                   (kbar)     P=       -0.02
  -0.00000011   0.00000000  -0.00000000           -0.02        0.00       -0.00
   0.00000000  -0.00000011  -0.00000000            0.00       -0.02       -0.00
  -0.00000000  -0.00000000  -0.00000011           -0.00       -0.00       -0.02


     Writing all to output data dir ./work/Si.save/
 
     init_run     :      0.10s CPU      0.15s WALL (       2 calls)
     electrons    :      9.79s CPU     11.11s WALL (       5 calls)
     update_pot   :      0.05s CPU      0.05s WALL (       3 calls)
     stress       :      0.11s CPU      0.12s WALL (       5 calls)

     Called by init_run:
     wfcinit      :      0.06s CPU      0.07s WALL (       2 calls)
     potinit      :      0.01s CPU      0.01s WALL (       2 calls)
     hinit0       :      0.02s CPU      0.05s WALL (       2 calls)

     Called by electrons:
     c_bands      :      8.32s CPU      9.35s WALL (      99 calls)
     sum_band     :      1.39s CPU      1.66s WALL (      99 calls)
     v_of_rho     :      0.02s CPU      0.03s WALL (     103 calls)
     mix_rho      :      0.04s CPU      0.05s WALL (      99 calls)

     Called by c_bands:
     init_us_2    :      0.12s CPU      0.14s WALL (   12300 calls)
     init_us_2:cp :      0.11s CPU      0.13s WALL (   12300 calls)
     cegterg      :      8.07s CPU      9.07s WALL (    5940 calls)

     Called by *egterg:
     cdiaghg      :      0.22s CPU      0.25s WALL (   19707 calls)
     h_psi        :      7.37s CPU      8.28s WALL (   20067 calls)
     g_psi        :      0.02s CPU      0.02s WALL (   14007 calls)

     Called by h_psi:
     h_psi:calbec :      0.24s CPU      0.27s WALL (   20067 calls)
     vloc_psi     :      7.02s CPU      7.88s WALL (   20067 calls)
     add_vuspsi   :      0.06s CPU      0.07s WALL (   20067 calls)

     General routines
     calbec       :      0.24s CPU      0.28s WALL (   20367 calls)
     fft          :      0.03s CPU      0.07s WALL (     323 calls)
     ffts         :      0.01s CPU      0.01s WALL (      99 calls)
     fftw         :      7.82s CPU      8.87s WALL (  167168 calls)
 
     Parallel routines
 
     PWSCF        :     10.10s CPU     11.52s WALL

 
   This run was terminated on:  13:51:36  31May2023            

=------------------------------------------------------------------------------=
   JOB DONE.
=------------------------------------------------------------------------------=
